<?xml version="1.0"?>
<VTKFile type="UnstructuredGrid" version="0.1" byte_order="LittleEndian">
  <UnstructuredGrid>
    <Piece NumberOfPoints="963" NumberOfCells="1758">
      <Points>
        <DataArray type="Float64" NumberOfComponents="3" format="ascii">
          1.600262034769e+002 1.257989505921e+001 0.000000000000e+000
          1.635346199106e+002 2.000000000000e+001 0.000000000000e+000
          1.554515002484e+002 2.000000000000e+001 0.000000000000e+000
          3.459306441575e+000 1.667621982453e+001 0.000000000000e+000
          3.062266634850e+000 1.705413688405e+001 0.000000000000e+000
          2.873380769063e+000 1.650527725632e+001 0.000000000000e+000
          1.514088444034e+000 1.865189448105e+001 0.000000000000e+000
          1.967902677551e+000 1.834103489750e+001 0.000000000000e+000
          2.034564522234e+000 1.890806711991e+001 0.000000000000e+000
          2.478275273162e+000 1.702762299110e+001 0.000000000000e+000
          2.952621433467e+000 1.774357373580e+001 0.000000000000e+000
          2.237893542067e+000 1.782457469610e+001 0.000000000000e+000
          3.313583922780e+000 3.274674552047e+000 0.000000000000e+000
          2.561432712787e+000 3.156040447793e+000 0.000000000000e+000
          3.047531989640e+000 2.714594415171e+000 0.000000000000e+000
          2.750804692284e+000 3.936058190693e+000 0.000000000000e+000
          2.599039179818e+000 2.451529939148e+000 0.000000000000e+000
          3.139686649742e+000 2.186924052088e+000 0.000000000000e+000
          1.919984553221e+000 3.358010194268e+000 0.000000000000e+000
          1.960900304591e+000 2.773319745251e+000 0.000000000000e+000
          1.894565400391e+000 1.733316857565e+001 0.000000000000e+000
          0.000000000000e+000 1.538461538461e+001 0.000000000000e+000
          5.816229249735e-001 1.567919247147e+001 0.000000000000e+000
          0.000000000000e+000 1.589743589743e+001 0.000000000000e+000
          9.766405669483e+001 2.000000000000e+001 0.000000000000e+000
          1.010672711393e+002 1.500000000000e+001 0.000000000000e+000
          1.029329279907e+002 2.000000000000e+001 0.000000000000e+000
          9.588503785413e+001 1.500000000000e+001 0.000000000000e+000
          1.039231647117e+002 1.000000000000e+001 0.000000000000e+000
          9.860830811271e+001 1.000000000000e+001 0.000000000000e+000
          1.010672711397e+002 5.000000000000e+000 0.000000000000e+000
          9.766405669557e+001 0.000000000000e+000 0.000000000000e+000
          1.029329279915e+002 0.000000000000e+000 0.000000000000e+000
          9.588503785449e+001 5.000000000000e+000 0.000000000000e+000
          7.892434178002e+001 2.000000000000e+001 0.000000000000e+000
          8.173808356948e+001 1.500000000000e+001 0.000000000000e+000
          8.328058896910e+001 2.000000000000e+001 0.000000000000e+000
          7.679274808893e+001 1.514423393202e+001 0.000000000000e+000
          7.970503892166e+001 1.000000000000e+001 0.000000000000e+000
          8.409930620613e+001 1.000000000000e+001 0.000000000000e+000
          8.173808356980e+001 5.000000000000e+000 0.000000000000e+000
          7.892434178065e+001 0.000000000000e+000 0.000000000000e+000
          8.328058896976e+001 0.000000000000e+000 0.000000000000e+000
          7.679274808925e+001 4.855766067979e+000 0.000000000000e+000
          1.084583939765e+002 2.000000000000e+001 0.000000000000e+000
          1.122011528880e+002 1.500000000000e+001 0.000000000000e+000
          1.142529496098e+002 2.000000000000e+001 0.000000000000e+000
          1.065018792644e+002 1.500000000000e+001 0.000000000000e+000
          1.153419838410e+002 1.000000000000e+001 0.000000000000e+000
          1.094968549120e+002 1.000000000000e+001 0.000000000000e+000
          1.122011528884e+002 5.000000000000e+000 0.000000000000e+000
          1.084583939773e+002 0.000000000000e+000 0.000000000000e+000
          1.142529496106e+002 0.000000000000e+000 0.000000000000e+000
          1.065018792648e+002 5.000000000000e+000 0.000000000000e+000
          1.181779812237e+002 1.500000000000e+001 0.000000000000e+000
          1.203297004775e+002 2.000000000000e+001 0.000000000000e+000
          1.214717707847e+002 1.000000000000e+001 0.000000000000e+000
          1.181779812242e+002 5.000000000000e+000 0.000000000000e+000
          1.203297004784e+002 0.000000000000e+000 0.000000000000e+000
          7.477039199538e+001 2.000000000000e+001 0.000000000000e+000
          7.551483469771e+001 1.000000000000e+001 0.000000000000e+000
          7.296959467356e+001 1.385646386579e+001 0.000000000000e+000
          7.477039199599e+001 0.000000000000e+000 0.000000000000e+000
          7.296959467379e+001 6.143536134207e+000 0.000000000000e+000
          6.918477198508e+001 1.366665532880e+001 0.000000000000e+000
          6.746477463053e+001 1.000000000000e+001 0.000000000000e+000
          7.151921701478e+001 1.000000000000e+001 0.000000000000e+000
          6.918477198529e+001 6.333344671202e+000 0.000000000000e+000
          9.263986346551e+001 2.000000000000e+001 0.000000000000e+000
          9.094345943471e+001 1.500000000000e+001 0.000000000000e+000
          9.354026529380e+001 1.000000000000e+001 0.000000000000e+000
          9.263986346623e+001 0.000000000000e+000 0.000000000000e+000
          9.094345943506e+001 5.000000000000e+000 0.000000000000e+000
          1.244344522558e+002 1.503312574389e+001 0.000000000000e+000
          1.267023895482e+002 2.000000000000e+001 0.000000000000e+000
          1.285510028831e+002 1.020485663255e+001 0.000000000000e+000
          1.244344522563e+002 5.033125743893e+000 0.000000000000e+000
          1.267023895491e+002 0.000000000000e+000 0.000000000000e+000
          8.623136018348e+001 1.500000000000e+001 0.000000000000e+000
          8.784898578901e+001 2.000000000000e+001 0.000000000000e+000
          8.870757443665e+001 1.000000000000e+001 0.000000000000e+000
          8.623136018382e+001 5.000000000000e+000 0.000000000000e+000
          8.784898578969e+001 0.000000000000e+000 0.000000000000e+000
          4.872472752737e+000 0.000000000000e+000 0.000000000000e+000
          4.204479229380e+000 6.412840757122e-001 0.000000000000e+000
          4.157376851380e+000 0.000000000000e+000 0.000000000000e+000
          5.192892237051e+000 7.280355562789e-001 0.000000000000e+000
          1.306630304579e+000 6.212843344151e-001 0.000000000000e+000
          1.050228457081e+000 0.000000000000e+000 0.000000000000e+000
          1.614006202528e+000 0.000000000000e+000 0.000000000000e+000
          1.266763055794e+001 1.554696422866e+001 0.000000000000e+000
          1.263589100638e+001 1.657720348306e+001 0.000000000000e+000
          1.174268578662e+001 1.633018318031e+001 0.000000000000e+000
          6.588835695415e+000 7.505681085529e+000 0.000000000000e+000
          6.456871838389e+000 6.658671683861e+000 0.000000000000e+000
          7.208099140752e+000 7.038822846307e+000 0.000000000000e+000
          4.412623338166e+000 9.138856431549e+000 0.000000000000e+000
          4.024185797397e+000 8.708923235630e+000 0.000000000000e+000
          4.601447447338e+000 8.507292699647e+000 0.000000000000e+000
          5.325995059827e-001 6.308307298123e+000 0.000000000000e+000
          0.000000000000e+000 6.666666666655e+000 0.000000000000e+000
          0.000000000000e+000 6.153846153835e+000 0.000000000000e+000
          3.986461521768e+000 8.146114708182e+000 0.000000000000e+000
          2.411603373059e+000 6.510912162016e+000 0.000000000000e+000
          1.807525763324e+000 6.938080373464e+000 0.000000000000e+000
          1.686779352680e+000 6.178928843543e+000 0.000000000000e+000
          2.510760620997e+000 7.229076682239e+000 0.000000000000e+000
          3.166991983438e+000 6.906135870389e+000 0.000000000000e+000
          3.452788915829e+000 6.276851216781e+000 0.000000000000e+000
          3.340122000742e+000 5.656365440432e+000 0.000000000000e+000
          4.047936562877e+000 5.873561587395e+000 0.000000000000e+000
          1.802463974828e+000 1.292744708026e+001 0.000000000000e+000
          1.383967161336e+000 1.330299552906e+001 0.000000000000e+000
          1.329690820161e+000 1.266495373033e+001 0.000000000000e+000
          2.267922292389e+000 1.431116835808e+001 0.000000000000e+000
          2.854613987538e+000 1.466581611369e+001 0.000000000000e+000
          2.339869278674e+000 1.493776402241e+001 0.000000000000e+000
          4.690956878046e+000 3.115726773737e+000 0.000000000000e+000
          4.014773718330e+000 2.850429494150e+000 0.000000000000e+000
          4.643493383296e+000 2.293565471327e+000 0.000000000000e+000
          5.186083944243e+000 1.661927139510e+000 0.000000000000e+000
          5.452965511439e+000 2.679881546544e+000 0.000000000000e+000
          5.360460104304e+000 3.539902157655e+000 0.000000000000e+000
          6.197986304192e+000 3.115706366113e+000 0.000000000000e+000
          7.929356606585e-001 1.634705420870e+001 0.000000000000e+000
          1.222819867503e+000 1.599517159419e+001 0.000000000000e+000
          1.215723647926e+000 1.546209040954e+001 0.000000000000e+000
          1.770601276021e+000 1.521217632514e+001 0.000000000000e+000
          1.242830150061e+000 1.493919370237e+001 0.000000000000e+000
          1.166444124506e+000 4.610115997312e+000 0.000000000000e+000
          1.851620547934e+000 4.486892013458e+000 0.000000000000e+000
          1.494152702314e+000 5.145235789232e+000 0.000000000000e+000
          1.353088107040e+000 4.090803091641e+000 0.000000000000e+000
          3.802567455935e+000 5.084697985980e+000 0.000000000000e+000
          1.014840185783e+000 5.494768572296e+000 0.000000000000e+000
          8.831064584820e-001 5.109311190608e+000 0.000000000000e+000
          1.727903958959e+000 1.618384478933e+001 0.000000000000e+000
          1.343261525342e+000 1.651800241408e+001 0.000000000000e+000
          3.308120627291e+000 8.593311644828e+000 0.000000000000e+000
[...]
      <PointData Scalars="LIQUID_PRESSURE">
        <DataArray type="Float64" Name="LIQUID_PRESSURE" format="ascii">
          1.000118134059e+006 1.000107760604e+006 1.000131664788e+006 1.000699906374e+006 1.000702017118e+006 1.000703107372e+006 1.000708724477e+006 1.000707088383e+006 1.000709360121e+006 1.000705105423e+006 1.000702594024e+006 1.000705812446e+006 1.000702291946e+006 1.000706721512e+006 1.000702622580e+006 1.000707104217e+006 1.000704530437e+006 1.000700750928e+006 1.000711437982e+006 1.000710261339e+006 1.000707837582e+006 1.000748152196e+006 1.000742734806e+006 1.000742294340e+006 1.000304792013e+006 1.000294298449e+006 1.000288577800e+006 1.000310308903e+006 1.000285548670e+006 1.000301872094e+006 1.000294298423e+006 1.000304792004e+006 1.000288577746e+006 1.000310308892e+006 1.000364448903e+006 1.000355229274e+006 1.000350223994e+006 1.000371506330e+006 1.000361879098e+006 1.000347578085e+006 1.000355229270e+006 1.000364448906e+006 1.000350223998e+006 1.000371506335e+006 1.000271743280e+006 1.000260418236e+006 1.000254232731e+006 1.000277686524e+006 1.000250954499e+006 1.000268594898e+006 1.000260418040e+006 1.000271743143e+006 1.000254232380e+006 1.000277686447e+006 1.000242436400e+006 1.000235988375e+006 1.000232568941e+006 1.000242435825e+006 1.000235987600e+006 1.000378277950e+006 1.000375779154e+006 1.000384360180e+006 1.000378277964e+006 1.000384360196e+006 1.000397349633e+006 1.000403346613e+006 1.000389305050e+006 1.000397349669e+006 1.000320438877e+006 1.000325769650e+006 1.000317618737e+006 1.000320438879e+006 1.000325769644e+006 1.000223717062e+006 1.000216950291e+006 1.000211440786e+006 1.000223714630e+006 1.000216951361e+006 1.000340728655e+006 1.000335567784e+006 1.000332838683e+006 1.000340728641e+006 1.000335567783e+006 1.000690344843e+006 1.000693560119e+006 1.000693561466e+006 1.000688979632e+006 1.000696860523e+006 1.000713423453e+006 1.000702090706e+006 1.000647282619e+006 1.000647395734e+006 1.000652512825e+006 1.000685205382e+006 1.000685842126e+006 1.000681008898e+006 1.000700437042e+006 1.000703415830e+006 1.000699185309e+006 1.000746271274e+006 1.000744763311e+006 1.000746713394e+006 1.000703800807e+006 1.000717476325e+006 1.000724700662e+006 1.000726404293e+006 1.000716350659e+006 1.000710396932e+006 1.000707426193e+006 1.000707298425e+006 1.000702191920e+006 1.000711989692e+006 1.000712013464e+006 1.000715888399e+006 1.000705760677e+006 1.000703348318e+006 1.000705633879e+006 1.000693914515e+006 1.000697378895e+006 1.000693089105e+006 1.000689577366e+006 1.000689047255e+006 1.000690481222e+006 1.000685124845e+006 1.000723871115e+006 1.000712586685e+006 1.000714338868e+006 1.000708725901e+006 1.000709816192e+006 1.000710484248e+006 1.000712605042e+006 1.000717032331e+006 1.000714545286e+006 1.000702744626e+006 1.000734481935e+006 1.000724183738e+006 1.000709775693e+006 1.000712290996e+006 1.000708839403e+006 1.000713796733e+006 1.000710543223e+006 1.000722655884e+006 1.000723626398e+006 1.000705241438e+006 1.000725577119e+006 1.000728127146e+006 1.000715551467e+006 1.000702882284e+006 1.000722205765e+006 1.000712075010e+006 1.000713195496e+006 1.000766769048e+006 1.000732579354e+006 1.000707458448e+006 1.000706877321e+006 1.000714142242e+006 1.000695986857e+006 1.000692265654e+006 1.000690453579e+006 1.000687782108e+006 1.000685564732e+006 1.000714385639e+006 1.000712212122e+006 1.000728294616e+006 1.000721805392e+006 1.000709808118e+006 1.000737575876e+006 1.000762503438e+006 1.000724593881e+006 1.000717628860e+006 1.000698174358e+006 1.000695845026e+006 1.000715921971e+006 1.000722315003e+006 1.000699208235e+006 1.000698158456e+006 1.000699995805e+006 1.000757210867e+006 1.000740496334e+006 1.000724228379e+006 1.000712216954e+006 1.000706912402e+006 1.000707118844e+006 1.000710234741e+006 1.000723107381e+006 1.000724222325e+006 1.000699126412e+006 1.000699502224e+006 1.000707437516e+006 1.000710275306e+006 1.000684828936e+006 1.000680700145e+006 1.000706854877e+006 1.000709489358e+006 1.000723764805e+006 1.000706377481e+006 1.000706362901e+006 1.000702453723e+006 1.000699398627e+006 1.000699393952e+006 1.000696028720e+006 1.000699509437e+006 1.000699711656e+006 1.000697634762e+006 1.000728493850e+006 1.000721924660e+006 1.000719311781e+006 1.000701241061e+006 1.000707680358e+006 1.000708240463e+006 1.000711840758e+006 1.000711619215e+006 1.000706662358e+006 1.000410768499e+006 1.000410768528e+006 1.000710405306e+006 1.000700843015e+006 1.000716616689e+006 1.000673240695e+006 1.000676408546e+006 1.000670227857e+006 1.000698637878e+006 1.000694868647e+006 1.000734679651e+006 1.000722841976e+006 1.000728249608e+006 1.000707419133e+006 1.000705897666e+006 1.000729500545e+006 1.000719520281e+006 1.000734907734e+006 1.000733645688e+006 1.000704130456e+006 1.000703680668e+006 1.000742905494e+006 1.000697288179e+006 1.000709052630e+006 1.000704275137e+006 1.000700944905e+006 1.000710275401e+006 1.000716497850e+006 1.000744713314e+006 1.000748302480e+006 1.000752614923e+006 1.000739797696e+006 1.000748329999e+006 1.000741159826e+006 1.000758126516e+006 1.000716753882e+006 1.000763961707e+006 1.000734603584e+006 1.000735055196e+006 1.000709080409e+006 1.000772361357e+006 1.000721366495e+006 1.000726662086e+006 1.000755300508e+006 1.000736271094e+006 1.000751459307e+006 1.000737421526e+006 1.000762432271e+006 1.000732953436e+006 1.000731877965e+006 1.000430183835e+006 1.000420110718e+006 1.000417685750e+006 1.000435116585e+006 1.000417150869e+006 1.000429684663e+006 1.000420110806e+006 1.000430184005e+006 1.000417685856e+006 1.000435116776e+006 1.000417150917e+006 1.000429684762e+006 1.000454334936e+006 1.000447223523e+006 1.000442394352e+006 1.000459055684e+006 1.000441906898e+006 1.000453858529e+006 1.000447223832e+006 1.000454335390e+006 1.000442394635e+006 1.000459056183e+006 1.000441907083e+006 1.000453858840e+006 1.000530555922e+006 1.000524538672e+006 1.000520445925e+006 1.000534543728e+006 1.000520033488e+006 1.000530154512e+006 1.000524544561e+006 1.000530563837e+006 1.000520451473e+006 1.000534552090e+006 1.000520037324e+006 1.000530160010e+006 1.000510076501e+006 1.000503748962e+006 1.000499448128e+006 1.000514273397e+006 1.000499014356e+006 1.000509653347e+006 1.000503751713e+006 1.000510080295e+006 1.000499450655e+006 1.000514277486e+006 1.000499016128e+006 1.000509655988e+006 1.000559322570e+006 1.000554517115e+006 1.000549997132e+006 1.000563295142e+006 1.000554534246e+006 1.000559343306e+006 1.000550012405e+006 1.000563317778e+006 1.000488560928e+006 1.000481923428e+006 1.000477414344e+006 1.000492965708e+006 1.000476959444e+006 1.000488116604e+006 1.000481924626e+006 1.000488562608e+006 1.000477415424e+006 1.000492967531e+006 1.000476960214e+006 1.000488117787e+006 1.000466006698e+006 1.000470620878e+006 1.000465541115e+006 1.000466007395e+006 1.000470621667e+006 1.000465541617e+006 1.000540406491e+006 1.000546054310e+006 1.000540016615e+006 1.000540417632e+006 1.000546066631e+006 1.000540024349e+006 1.000549772926e+006 1.000549783670e+006 1.000461055277e+006 1.000468518855e+006 1.000456904735e+006 1.000472575417e+006 1.000461055500e+006 1.000472575779e+006 1.000516050899e+006 1.000522676416e+006 1.000512363145e+006 1.000526272125e+006 1.000516052742e+006 1.000526274731e+006 1.000449269021e+006 1.000445022482e+006 1.000449269162e+006 1.000556717952e+006 1.000559139393e+006 1.000559124680e+006 1.000556708922e+006 1.000479869561e+006 1.000483833376e+006 1.000483833934e+006 1.000505570530e+006 1.000501790786e+006 1.000505571758e+006 1.000494831418e+006 1.000490959740e+006 1.000494832260e+006 1.000545946364e+006 1.000545940699e+006 1.000532729498e+006 1.000536233658e+006 1.000536237344e+006 1.000437210273e+006 1.000432864580e+006 1.000437210359e+006 1.000543812875e+006 1.000423530757e+006 1.000416703230e+006 1.000423530784e+006 1.000404853608e+006 1.000406992187e+006 1.000404853555e+006 1.000406992141e+006 1.000677034715e+006 1.000673315582e+006 1.000678339175e+006 1.000671494053e+006 1.000698233362e+006 1.000698774946e+006 1.000699852110e+006 1.000705825019e+006 1.000711378412e+006 1.000692171307e+006 1.000691190665e+006 1.000718844479e+006 1.000743009375e+006 1.000686198401e+006 1.000140698897e+006 1.000154476420e+006 1.000131664639e+006 1.000682595341e+006 1.000678128281e+006 1.000679703559e+006 1.000682156531e+006 1.000697555320e+006 1.000705270333e+006 1.000717564455e+006 1.000697589528e+006 1.000723889958e+006 1.000716326029e+006 1.000722589890e+006 1.000679089500e+006 1.000679039860e+006 1.000673500525e+006 1.000715667189e+006 1.000710134473e+006 1.000748259893e+006 1.000747853098e+006 1.000741321012e+006 1.000674989836e+006 1.000678948206e+006 1.000677715498e+006 1.000680531676e+006 1.000674947200e+006 1.000683367595e+006 1.000672872615e+006 1.000667281392e+006 1.000669971898e+006 1.000671938596e+006 1.000741483933e+006 1.000703021935e+006 1.000704036291e+006 1.000708240934e+006 1.000672512061e+006 1.000669449843e+006 1.000666211148e+006 1.000664068088e+006 1.000705031942e+006 1.000710109014e+006 1.000654915926e+006 1.000653645690e+006 1.000658997387e+006 1.000681097728e+006 1.000684428224e+006 1.000647826939e+006 1.000655108757e+006 1.000651314662e+006 1.000700092580e+006 1.000688106200e+006 1.000685661329e+006 1.000640411237e+006 1.000641079197e+006 1.000721407817e+006 1.000728531465e+006 1.000677994887e+006 1.000683299668e+006 1.000675267457e+006 1.000676921171e+006 1.000671735442e+006 1.000671149100e+006 1.000688287222e+006 1.000661690970e+006 1.000664480099e+006 1.000653511411e+006 1.000649494600e+006 1.000646610194e+006 1.000667023067e+006 1.000644886663e+006 1.000649717735e+006 1.000651120476e+006 1.000642562958e+006 1.000700063706e+006 1.000701161464e+006 1.000661735196e+006 1.000666252257e+006 1.000690287600e+006 1.000705603386e+006 1.000696104123e+006 1.000696716029e+006 1.000728812177e+006 1.000727383854e+006 1.000709682325e+006 1.000714987181e+006 1.000686257926e+006 1.000689280156e+006 1.000672711403e+006 1.000669103165e+006 1.000666944620e+006 1.000675494418e+006 1.000670330385e+006 1.000666862826e+006 1.000674357768e+006 1.000688763876e+006 1.000689071790e+006 1.000692456755e+006 1.000675561643e+006 1.000692510334e+006 1.000683624052e+006 1.000692688802e+006 1.000690896105e+006 1.000660426538e+006 1.000655017852e+006 1.000658565035e+006 1.000697930100e+006 1.000702014941e+006 1.000692354080e+006 1.000671094523e+006 1.000695109733e+006 1.000656303383e+006 1.000658982355e+006 1.000730418195e+006 1.000750394208e+006 1.000699453814e+006 1.000695977151e+006 1.000700110222e+006 1.000681618752e+006 1.000698301933e+006 1.000676050272e+006 1.000671095170e+006 1.000713450646e+006 1.000702508554e+006 1.000705696446e+006 1.000699002522e+006 1.000681331509e+006 1.000679392813e+006 1.000680956664e+006 1.000684614657e+006 1.000693705545e+006 1.000719929308e+006 1.000709565914e+006 1.000662745299e+006 1.000665607079e+006 1.000666668340e+006 1.000661274152e+006 1.000687929786e+006 1.000655857451e+006 1.000649105980e+006 1.000651303711e+006 1.000686577892e+006 1.000696579641e+006 1.000717034637e+006 1.000675969119e+006 1.000663711966e+006 1.000661457155e+006 1.000657938581e+006 1.000666578755e+006 1.000666731226e+006 1.000718375081e+006 1.000720440125e+006 1.000712573445e+006 1.000658923380e+006 1.000656193108e+006 1.000683317443e+006 1.000687007137e+006 1.000687749226e+006 1.000660389258e+006 1.000665451660e+006 1.000663877340e+006 1.000718308189e+006 1.000732603594e+006 1.000764184971e+006 1.000698277333e+006 1.000700036993e+006 1.000662418761e+006 1.000668764442e+006 1.000692750691e+006 1.000710210148e+006 1.000725360310e+006 1.000670097084e+006 1.000665977565e+006 1.000667573995e+006 1.000706070839e+006 1.000680770726e+006 1.000694513488e+006 1.000661887864e+006 1.000691461711e+006 1.000707221400e+006 1.000704573501e+006 1.000720704451e+006 1.000676009986e+006 1.000656223618e+006 1.000703828319e+006 1.000701460835e+006 1.000670981153e+006 1.000652134751e+006 1.000657034548e+006 1.000703310647e+006 1.000744050856e+006 1.000760261588e+006 1.000664177339e+006 1.000661571490e+006 1.000658336720e+006 1.000082703689e+006 1.000072369593e+006 1.000056433074e+006 1.000673407614e+006 1.000744482874e+006 1.000714893805e+006 1.000713768134e+006 1.000710688353e+006 1.000697749731e+006 1.000673468107e+006 1.000700212415e+006 1.000695174540e+006 1.000693352510e+006 1.000394323597e+006 1.000394323555e+006 1.000752337044e+006 1.000739535710e+006 1.000725541615e+006 1.000691466116e+006 1.000667135273e+006 1.000691249960e+006 1.000669214341e+006 1.000724940736e+006 1.000682400489e+006 1.000722126213e+006 1.000659875508e+006 1.000660929652e+006 1.000677348127e+006 1.000117397360e+006 1.000107760473e+006 1.000698529911e+006 1.000688014458e+006 1.000689468984e+006 1.000685019714e+006 1.000676616019e+006 1.000743505099e+006 1.000566716720e+006 1.000565883962e+006 1.000566733375e+006 1.000565894733e+006 1.000702982138e+006 1.000724975048e+006 1.000677080407e+006 1.000740142517e+006 1.000563778140e+006 1.000560296404e+006 1.000554872481e+006 1.000560291835e+006 1.000656473141e+006 1.000652411130e+006 1.000727694494e+006 1.000659823698e+006 1.000696254403e+006 1.000697274335e+006 1.000696751888e+006 1.000694848795e+006 1.000728357590e+006 1.000732662786e+006 1.000708841781e+006 1.000724774160e+006 1.000648415304e+006 1.000655409970e+006 1.000097965737e+006 1.000082703659e+006 1.000758472346e+006 1.000717937698e+006 1.000703743717e+006 1.000715894636e+006 1.000671968906e+006 1.000764580336e+006 1.000674600386e+006 1.000391737432e+006 1.000391737473e+006 1.000643907782e+006 1.000684280457e+006 1.000636856059e+006 1.000632443705e+006 1.000629184138e+006 1.000656215839e+006 1.000699251942e+006 1.000704950168e+006 1.000649856883e+006 1.000034196296e+006 1.000028886566e+006 1.000644419867e+006 1.000749592200e+006 1.000720762137e+006 1.000651539014e+006 1.000719337862e+006 1.000757392819e+006 1.000741834227e+006 1.000654168164e+006 1.000576759911e+006 1.000571606865e+006 1.000570454985e+006 1.000581597623e+006 1.000579768100e+006 1.000571600059e+006 1.000581589381e+006 1.000579752957e+006 1.000585317605e+006 1.000590017319e+006 1.000587169158e+006 1.000590006684e+006 1.000587149748e+006 1.000593622223e+006 1.000598168028e+006 1.000595393549e+006 1.000598180805e+006 1.000595418571e+006 1.000601672481e+006 1.000606084107e+006 1.000603383914e+006 1.000606095844e+006 1.000603415104e+006 1.000609474324e+006 1.000613785868e+006 1.000611132333e+006 1.000613779961e+006 1.000611165384e+006 1.000617043497e+006 1.000621371747e+006 1.000618690735e+006 1.000621286441e+006 1.000618689898e+006 1.000573826630e+006 1.000574803882e+006 1.000582021517e+006 1.000584310184e+006 1.000574785958e+006 1.000573802972e+006 1.000581991258e+006 1.000584284584e+006 1.000590387954e+006 1.000592615810e+006 1.000590427319e+006 1.000592648798e+006 1.000598526096e+006 1.000600691829e+006 1.000598576641e+006 1.000600732786e+006 1.000606409321e+006 1.000608529007e+006 1.000606473322e+006 1.000608573661e+006 1.000596993425e+006 1.000602090647e+006 1.000594062925e+006 1.000604876470e+006 1.000591834497e+006 1.000600680749e+006 1.000602013671e+006 1.000596928074e+006 1.000594001989e+006 1.000604794362e+006 1.000591781125e+006 1.000600611764e+006 1.000609862677e+006 1.000612616202e+006 1.000608520464e+006 1.000609766912e+006 1.000612513879e+006 1.000608433609e+006 1.000617378384e+006 1.000620265636e+006 1.000616191105e+006 1.000617261208e+006 1.000620139338e+006 1.000616081946e+006 1.000624638566e+006 1.000628263215e+006 1.000623143823e+006 1.000624497601e+006 1.000628036552e+006 1.000623420151e+006 1.000631643710e+006 1.000635565189e+006 1.000631477175e+006 1.000634983455e+006 1.000614053053e+006 1.000616183796e+006 1.000614131415e+006 1.000616204911e+006 1.000578955765e+006 1.000567125366e+006 1.000572954000e+006 1.000578923399e+006 1.000567103307e+006 1.000572923388e+006 1.000587224634e+006 1.000582986967e+006 1.000587182941e+006 1.000582945548e+006 1.000595474929e+006 1.000595421291e+006 1.000603478883e+006 1.000603410837e+006 1.000611280484e+006 1.000611195231e+006 1.000662735354e+006 1.000668197262e+006 1.000662788144e+006 1.000758896583e+006 1.000619027131e+006 1.000618921447e+006 1.000638393474e+006 1.000638201813e+006 1.000624431640e+006 1.000629044436e+006 1.000626326436e+006 1.000628771523e+006 1.000626060892e+006 1.000621525769e+006 1.000623847082e+006 1.000621608378e+006 1.000623725180e+006 1.000625691780e+006 1.000657088406e+006 1.000626223873e+006 1.000662585372e+006 1.000668067460e+006 1.000641990655e+006 1.000644673892e+006 1.000628879839e+006 1.000634046944e+006 1.000631356841e+006 1.000631295057e+006 1.000631829821e+006 1.000635219796e+006 1.000635132143e+006 1.000636270611e+006 1.000634556720e+006 1.000639418779e+006 1.000637793733e+006 1.000639306943e+006 1.000635148330e+006 1.000639538898e+006 1.000643618487e+006 1.000681611610e+006 1.000660975907e+006 1.000643025132e+006 1.000687574385e+006 1.000741613706e+006 1.000642169185e+006 1.000000000000e+006 1.000000000000e+006 1.000028886562e+006 1.000679947335e+006 1.000686002374e+006 1.000689141478e+006 1.000685911888e+006 1.000681850576e+006 1.000696195903e+006 1.000744420234e+006 1.000689228380e+006 1.000722913263e+006 1.000678617357e+006 1.000650893563e+006 1.000649081454e+006 1.000706957932e+006 1.000696132811e+006 1.000647365024e+006 1.000644123886e+006 1.000682748092e+006 1.000646593975e+006 1.000647351428e+006 1.000665307087e+006 1.000656740619e+006 1.000629663856e+006 1.000680707440e+006 1.000383990262e+006 1.000383990227e+006 1.000693867155e+006 1.000552287453e+006 1.000552291163e+006 1.000639145068e+006 1.000695305737e+006 1.000682044791e+006 1.000638118330e+006 1.000691220181e+006 1.000691343754e+006 1.000718773997e+006 1.000633177987e+006 1.000634670369e+006 1.000633889706e+006 1.000676129935e+006 1.000170622997e+006 1.000160876565e+006 1.000669796612e+006 1.000654442516e+006 1.000176254454e+006 1.000743360588e+006 1.000741014926e+006 1.000736742306e+006 1.000641519258e+006 1.000680896521e+006 1.000056433061e+006 1.000696393235e+006 1.000696653562e+006 1.000686680530e+006 1.000648536300e+006 1.000693764854e+006 1.000568413583e+006 1.000568385768e+006 1.000701906083e+006 1.000758854843e+006 1.000659428645e+006 1.000705364300e+006 1.000693743292e+006 1.000773060114e+006 1.000700605848e+006 1.000711821243e+006 1.000684266196e+006 1.000671109083e+006 1.000673323738e+006 1.000695592033e+006 1.000736328613e+006 1.000697354161e+006 1.000746230607e+006 1.000656863133e+006 1.000654131582e+006 1.000701074840e+006 1.000648745017e+006 1.000188503190e+006 1.000643895762e+006 1.000095217953e+006 1.000639077174e+006 1.000692272659e+006 1.000646654866e+006 1.000704348505e+006 1.000644628525e+006 1.000684511682e+006 1.000628673558e+006 1.000691469345e+006 1.000683153095e+006 1.000742934085e+006 1.000737655105e+006 1.000750959087e+006 1.000715127659e+006 1.000176254985e+006 1.000197059595e+006 1.000154476100e+006 1.000207522849e+006 1.000763280585e+006 1.000197766366e+006 1.000141166027e+006 1.000713618314e+006 1.000769320072e+006 1.000685771628e+006 1.000681134058e+006 1.000197060379e+006 1.000686375483e+006 1.000690757541e+006 1.000556600917e+006 1.000556584495e+006 1.000577222218e+006 1.000577185531e+006 1.000741106161e+006 1.000771184443e+006 1.000588050302e+006 1.000588100644e+006 1.000585772122e+006 1.000585724539e+006 1.000766295513e+006 1.000688478513e+006 
        </DataArray>
        <DataArray type="Float64" Name="MOLAR_FRACTION" format="ascii">