<?xml version="1.0"?>
<VTKFile type="UnstructuredGrid" version="0.1" byte_order="LittleEndian">
  <UnstructuredGrid>
    <Piece NumberOfPoints="963" NumberOfCells="1758">
      <Points>
        <DataArray type="Float64" NumberOfComponents="3" format="ascii">
          1.600262034769e+002 1.257989505921e+001 0.000000000000e+000
          1.635346199106e+002 2.000000000000e+001 0.000000000000e+000
          1.554515002484e+002 2.000000000000e+001 0.000000000000e+000
          3.459306441575e+000 1.667621982453e+001 0.000000000000e+000
          3.062266634850e+000 1.705413688405e+001 0.000000000000e+000
          2.873380769063e+000 1.650527725632e+001 0.000000000000e+000
          1.514088444034e+000 1.865189448105e+001 0.000000000000e+000
          1.967902677551e+000 1.834103489750e+001 0.000000000000e+000
          2.034564522234e+000 1.890806711991e+001 0.000000000000e+000
          2.478275273162e+000 1.702762299110e+001 0.000000000000e+000
          2.952621433467e+000 1.774357373580e+001 0.000000000000e+000
          2.237893542067e+000 1.782457469610e+001 0.000000000000e+000
          3.313583922780e+000 3.274674552047e+000 0.000000000000e+000
          2.561432712787e+000 3.156040447793e+000 0.000000000000e+000
          3.047531989640e+000 2.714594415171e+000 0.000000000000e+000
          2.750804692284e+000 3.936058190693e+000 0.000000000000e+000
          2.599039179818e+000 2.451529939148e+000 0.000000000000e+000
          3.139686649742e+000 2.186924052088e+000 0.000000000000e+000
          1.919984553221e+000 3.358010194268e+000 0.000000000000e+000
          1.960900304591e+000 2.773319745251e+000 0.000000000000e+000
          1.894565400391e+000 1.733316857565e+001 0.000000000000e+000
          0.000000000000e+000 1.538461538461e+001 0.000000000000e+000
          5.816229249735e-001 1.567919247147e+001 0.000000000000e+000
          0.000000000000e+000 1.589743589743e+001 0.000000000000e+000
          9.766405669483e+001 2.000000000000e+001 0.000000000000e+000
          1.010672711393e+002 1.500000000000e+001 0.000000000000e+000
          1.029329279907e+002 2.000000000000e+001 0.000000000000e+000
          9.588503785413e+001 1.500000000000e+001 0.000000000000e+000
          1.039231647117e+002 1.000000000000e+001 0.000000000000e+000
          9.860830811271e+001 1.000000000000e+001 0.000000000000e+000
          1.010672711397e+002 5.000000000000e+000 0.000000000000e+000
          9.766405669557e+001 0.000000000000e+000 0.000000000000e+000
          1.029329279915e+002 0.000000000000e+000 0.000000000000e+000
          9.588503785449e+001 5.000000000000e+000 0.000000000000e+000
          7.892434178002e+001 2.000000000000e+001 0.000000000000e+000
          8.173808356948e+001 1.500000000000e+001 0.000000000000e+000
          8.328058896910e+001 2.000000000000e+001 0.000000000000e+000
          7.679274808893e+001 1.514423393202e+001 0.000000000000e+000
          7.970503892166e+001 1.000000000000e+001 0.000000000000e+000
          8.409930620613e+001 1.000000000000e+001 0.000000000000e+000
          8.173808356980e+001 5.000000000000e+000 0.000000000000e+000
          7.892434178065e+001 0.000000000000e+000 0.000000000000e+000
          8.328058896976e+001 0.000000000000e+000 0.000000000000e+000
          7.679274808925e+001 4.855766067979e+000 0.000000000000e+000
          1.084583939765e+002 2.000000000000e+001 0.000000000000e+000
          1.122011528880e+002 1.500000000000e+001 0.000000000000e+000
          1.142529496098e+002 2.000000000000e+001 0.000000000000e+000
          1.065018792644e+002 1.500000000000e+001 0.000000000000e+000
          1.153419838410e+002 1.000000000000e+001 0.000000000000e+000
          1.094968549120e+002 1.000000000000e+001 0.000000000000e+000
          1.122011528884e+002 5.000000000000e+000 0.000000000000e+000
          1.084583939773e+002 0.000000000000e+000 0.000000000000e+000
          1.142529496106e+002 0.000000000000e+000 0.000000000000e+000
          1.065018792648e+002 5.000000000000e+000 0.000000000000e+000
          1.181779812237e+002 1.500000000000e+001 0.000000000000e+000
          1.203297004775e+002 2.000000000000e+001 0.000000000000e+000
          1.214717707847e+002 1.000000000000e+001 0.000000000000e+000
          1.181779812242e+002 5.000000000000e+000 0.000000000000e+000
          1.203297004784e+002 0.000000000000e+000 0.000000000000e+000
          7.477039199538e+001 2.000000000000e+001 0.000000000000e+000
          7.551483469771e+001 1.000000000000e+001 0.000000000000e+000
          7.296959467356e+001 1.385646386579e+001 0.000000000000e+000
          7.477039199599e+001 0.000000000000e+000 0.000000000000e+000
          7.296959467379e+001 6.143536134207e+000 0.000000000000e+000
          6.918477198508e+001 1.366665532880e+001 0.000000000000e+000
          6.746477463053e+001 1.000000000000e+001 0.000000000000e+000
          7.151921701478e+001 1.000000000000e+001 0.000000000000e+000
          6.918477198529e+001 6.333344671202e+000 0.000000000000e+000
          9.263986346551e+001 2.000000000000e+001 0.000000000000e+000
          9.094345943471e+001 1.500000000000e+001 0.000000000000e+000
          9.354026529380e+001 1.000000000000e+001 0.000000000000e+000
          9.263986346623e+001 0.000000000000e+000 0.000000000000e+000
          9.094345943506e+001 5.000000000000e+000 0.000000000000e+000
          1.244344522558e+002 1.503312574389e+001 0.000000000000e+000
          1.267023895482e+002 2.000000000000e+001 0.000000000000e+000
          1.285510028831e+002 1.020485663255e+001 0.000000000000e+000
          1.244344522563e+002 5.033125743893e+000 0.000000000000e+000
          1.267023895491e+002 0.000000000000e+000 0.000000000000e+000
          8.623136018348e+001 1.500000000000e+001 0.000000000000e+000
          8.784898578901e+001 2.000000000000e+001 0.000000000000e+000
          8.870757443665e+001 1.000000000000e+001 0.000000000000e+000
          8.623136018382e+001 5.000000000000e+000 0.000000000000e+000
          8.784898578969e+001 0.000000000000e+000 0.000000000000e+000
          4.872472752737e+000 0.000000000000e+000 0.000000000000e+000
          4.204479229380e+000 6.412840757122e-001 0.000000000000e+000
          4.157376851380e+000 0.000000000000e+000 0.000000000000e+000
          5.192892237051e+000 7.280355562789e-001 0.000000000000e+000
          1.306630304579e+000 6.212843344151e-001 0.000000000000e+000
          1.050228457081e+000 0.000000000000e+000 0.000000000000e+000
          1.614006202528e+000 0.000000000000e+000 0.000000000000e+000
          1.266763055794e+001 1.554696422866e+001 0.000000000000e+000
          1.263589100638e+001 1.657720348306e+001 0.000000000000e+000
          1.174268578662e+001 1.633018318031e+001 0.000000000000e+000
          6.588835695415e+000 7.505681085529e+000 0.000000000000e+000
          6.456871838389e+000 6.658671683861e+000 0.000000000000e+000
          7.208099140752e+000 7.038822846307e+000 0.000000000000e+000
          4.412623338166e+000 9.138856431549e+000 0.000000000000e+000
          4.024185797397e+000 8.708923235630e+000 0.000000000000e+000
          4.601447447338e+000 8.507292699647e+000 0.000000000000e+000
          5.325995059827e-001 6.308307298123e+000 0.000000000000e+000
          0.000000000000e+000 6.666666666655e+000 0.000000000000e+000
          0.000000000000e+000 6.153846153835e+000 0.000000000000e+000
          3.986461521768e+000 8.146114708182e+000 0.000000000000e+000
          2.411603373059e+000 6.510912162016e+000 0.000000000000e+000
          1.807525763324e+000 6.938080373464e+000 0.000000000000e+000
          1.686779352680e+000 6.178928843543e+000 0.000000000000e+000
          2.510760620997e+000 7.229076682239e+000 0.000000000000e+000
          3.166991983438e+000 6.906135870389e+000 0.000000000000e+000
          3.452788915829e+000 6.276851216781e+000 0.000000000000e+000
          3.340122000742e+000 5.656365440432e+000 0.000000000000e+000
          4.047936562877e+000 5.873561587395e+000 0.000000000000e+000
          1.802463974828e+000 1.292744708026e+001 0.000000000000e+000
          1.383967161336e+000 1.330299552906e+001 0.000000000000e+000
          1.329690820161e+000 1.266495373033e+001 0.000000000000e+000
          2.267922292389e+000 1.431116835808e+001 0.000000000000e+000
          2.854613987538e+000 1.466581611369e+001 0.000000000000e+000
          2.339869278674e+000 1.493776402241e+001 0.000000000000e+000
          4.690956878046e+000 3.115726773737e+000 0.000000000000e+000
          4.014773718330e+000 2.850429494150e+000 0.000000000000e+000
          4.643493383296e+000 2.293565471327e+000 0.000000000000e+000
          5.186083944243e+000 1.661927139510e+000 0.000000000000e+000
          5.452965511439e+000 2.679881546544e+000 0.000000000000e+000
          5.360460104304e+000 3.539902157655e+000 0.000000000000e+000
          6.197986304192e+000 3.115706366113e+000 0.000000000000e+000
          7.929356606585e-001 1.634705420870e+001 0.000000000000e+000
          1.222819867503e+000 1.599517159419e+001 0.000000000000e+000
          1.215723647926e+000 1.546209040954e+001 0.000000000000e+000
          1.770601276021e+000 1.521217632514e+001 0.000000000000e+000
          1.242830150061e+000 1.493919370237e+001 0.000000000000e+000
          1.166444124506e+000 4.610115997312e+000 0.000000000000e+000
          1.851620547934e+000 4.486892013458e+000 0.000000000000e+000
          1.494152702314e+000 5.145235789232e+000 0.000000000000e+000
          1.353088107040e+000 4.090803091641e+000 0.000000000000e+000
          3.802567455935e+000 5.084697985980e+000 0.000000000000e+000
          1.014840185783e+000 5.494768572296e+000 0.000000000000e+000
          8.831064584820e-001 5.109311190608e+000 0.000000000000e+000
          1.727903958959e+000 1.618384478933e+001 0.000000000000e+000
          1.343261525342e+000 1.651800241408e+001 0.000000000000e+000
          3.308120627291e+000 8.593311644828e+000 0.000000000000e+000
[...]
      <PointData Scalars="LIQUID_PRESSURE">
        <DataArray type="Float64" Name="LIQUID_PRESSURE" format="ascii">
          1.000155682481e+006 1.000963572823e+006 1.000006073699e+006 9.999751738592e+005 1.000129809293e+006 1.000335188840e+006 1.000271638562e+006 1.000896963206e+006 1.000944108210e+006 1.000923210252e+006 1.000229648555e+006 1.000983385840e+006 9.999010171595e+005 1.000759284582e+006 1.000110694801e+006 1.000419369891e+006 1.000748975018e+006 9.999786362423e+005 1.000868004131e+006 1.000940088597e+006 1.000771226893e+006 1.000820920092e+006 1.000398128490e+006 1.000813402470e+006 1.000341580584e+006 1.000342743577e+006 1.000334060802e+006 1.000339984756e+006 1.000332559105e+006 1.000340909285e+006 1.000342512533e+006 1.000341402181e+006 1.000334167798e+006 1.000340000899e+006 1.000374362228e+006 1.000359635697e+006 1.000364134074e+006 1.000375283161e+006 1.000382148145e+006 1.000356259128e+006 1.000359753616e+006 1.000374430021e+006 1.000364121048e+006 1.000374788224e+006 1.000331910682e+006 1.000324304187e+006 1.000321001100e+006 1.000328700083e+006 1.000317295881e+006 1.000330697850e+006 1.000323649942e+006 1.000331396261e+006 1.000318548279e+006 1.000328753122e+006 1.000319257967e+006 1.000309465659e+006 1.000313619737e+006 1.000316749024e+006 1.000310856238e+006 1.000388438079e+006 1.000363707686e+006 1.000363905082e+006 1.000388280678e+006 1.000364778929e+006 1.000341694770e+006 1.000361523627e+006 1.000427534974e+006 1.000341888156e+006 1.000363303274e+006 1.000349074039e+006 1.000359146054e+006 1.000363276353e+006 1.000349036253e+006 1.000312739929e+006 1.000320748803e+006 1.000297625353e+006 1.000319218651e+006 1.000317493904e+006 1.000374669064e+006 1.000346499651e+006 1.000350557398e+006 1.000374647661e+006 1.000346486838e+006 1.000637432080e+006 1.000832580917e+006 1.000702335636e+006 1.000169863560e+006 1.000023395320e+006 9.999239963029e+005 1.000465562620e+006 1.000496671635e+006 1.000283901281e+006 1.000370614945e+006 1.000977064005e+006 1.000935042050e+006 1.000376414143e+006 1.000948607061e+006 1.000641636243e+006 1.000757209568e+006 1.000404618870e+006 1.000879087440e+006 1.000838112102e+006 1.000614370070e+006 1.000891289905e+006 1.000715193663e+006 1.000575975912e+006 1.000741426212e+006 9.999295382666e+005 9.999542949096e+005 9.999075038228e+005 1.000725670426e+006 1.000667889585e+006 1.000071818460e+006 1.000015676753e+006 1.001004198177e+006 1.000338085452e+006 1.000974791746e+006 1.000700489924e+006 1.000650505473e+006 1.000738843100e+006 1.000158764325e+006 9.999788151661e+005 9.999374014590e+005 1.000623468919e+006 1.000183465936e+006 9.999075561664e+005 9.999069993161e+005 1.000625101691e+006 9.999150783842e+005 9.999164471636e+005 1.000676132516e+006 1.000202801216e+006 9.999946703408e+005 1.000280505793e+006 9.999348783446e+005 1.000038156580e+006 1.000514041028e+006 9.999701438696e+005 9.999027001905e+005 1.000565740599e+006 9.999087735233e+005 1.000108489576e+006 1.000159150922e+006 9.999586568702e+005 1.000178134235e+006 1.000000072178e+006 1.000059011826e+006 1.000176894150e+006 1.000146361810e+006 1.000275719651e+006 1.000732867464e+006 1.000721330461e+006 1.000766163773e+006 9.999376358613e+005 1.000489412001e+006 1.000980877677e+006 1.000655288432e+006 1.000633387136e+006 1.000158221684e+006 9.999547194067e+005 1.000364676454e+006 1.000168054287e+006 1.000031930269e+006 1.000026750542e+006 1.000071365567e+006 1.000568716223e+006 1.000745069797e+006 1.000708419856e+006 1.000754142218e+006 1.000964505450e+006 1.000327551319e+006 1.000874589068e+006 1.000190690192e+006 9.999327036212e+005 1.000585149480e+006 9.999744111354e+005 1.000476624848e+006 1.000688136652e+006 1.000774472400e+006 9.998971652425e+005 1.000706772530e+006 1.000655639566e+006 1.000172357584e+006 1.000923195711e+006 1.000141175454e+006 1.000306003639e+006 9.999371155674e+005 9.999947980860e+005 1.000602296249e+006 1.000965369847e+006 1.000415577645e+006 1.000791871667e+006 1.000984164988e+006 1.000975179387e+006 9.999742763146e+005 1.000966234079e+006 1.000187742900e+006 1.000797355441e+006 1.000030861920e+006 9.999796870459e+005 1.000741537085e+006 1.000927915940e+006 1.000540374114e+006 9.999197056437e+005 9.999099082746e+005 9.999082153475e+005 1.000390040250e+006 9.999382016365e+005 9.999872784726e+005 1.000056086937e+006 9.999359356572e+005 1.000344243419e+006 1.000951253007e+006 1.000457129881e+006 1.000453138059e+006 1.000681042949e+006 1.000968439584e+006 9.999331536823e+005 1.000377139299e+006 9.999895759339e+005 1.000875359537e+006 1.000240604014e+006 1.000971518961e+006 9.999386812415e+005 1.000283510634e+006 9.999555351832e+005 1.000709550066e+006 1.000863941758e+006 1.000041429222e+006 1.000904131307e+006 9.999082409600e+005 9.999592962003e+005 1.000516241871e+006 9.999999628051e+005 1.000350119579e+006 1.000217920339e+006 1.000690166006e+006 1.000672155772e+006 9.998863319579e+005 1.001039552358e+006 1.000408626672e+006 1.000419292727e+006 1.000416357669e+006 1.000873693351e+006 1.000818986938e+006 1.000852109741e+006 1.000869076988e+006 1.000537564593e+006 1.000657268241e+006 1.000590782247e+006 9.999258770259e+005 1.000361629417e+006 1.000682069593e+006 1.000704125416e+006 1.000721932529e+006 1.000741905832e+006 1.000653274235e+006 1.000735500220e+006 1.000596172541e+006 1.000736208666e+006 1.000693964156e+006 1.000756812101e+006 1.000731744832e+006 1.000311282808e+006 1.000374709222e+006 1.000493466371e+006 1.000465360857e+006 1.000466513977e+006 1.000328541593e+006 1.000354041116e+006 1.000320287223e+006 1.000524308054e+006 1.000470614212e+006 1.000479008356e+006 1.000333384671e+006 1.000363181396e+006 1.000310821341e+006 1.000441348073e+006 1.000575083098e+006 1.000441098464e+006 1.000339225035e+006 1.000311601964e+006 1.000367201430e+006 1.000431338256e+006 1.000574202327e+006 1.000436606071e+006 1.000340783092e+006 1.000395013598e+006 1.000435488476e+006 1.000421548838e+006 1.000412527773e+006 1.000397134506e+006 1.000403642594e+006 1.000435499034e+006 1.000395017859e+006 1.000421536938e+006 1.000412503937e+006 1.000397139575e+006 1.000403630131e+006 1.000335741019e+006 1.000534172840e+006 1.000361913586e+006 1.000415430151e+006 1.000330998835e+006 1.000385479139e+006 1.000534166664e+006 1.000335782279e+006 1.000361888326e+006 1.000415417872e+006 1.000331000242e+006 1.000385480267e+006 1.000515077571e+006 1.000440669165e+006 1.000307540185e+006 1.000356128679e+006 1.000440621190e+006 1.000514999198e+006 1.000307495533e+006 1.000355755223e+006 1.000490433501e+006 1.000311953994e+006 1.000575189276e+006 1.000358098319e+006 1.000533302335e+006 1.000480466082e+006 1.000311886650e+006 1.000490426654e+006 1.000575345770e+006 1.000358123562e+006 1.000533317962e+006 1.000480467621e+006 1.000316772249e+006 1.000293703637e+006 1.000362066196e+006 1.000315757361e+006 1.000294001325e+006 1.000361749773e+006 1.000427960760e+006 1.000489819016e+006 1.000414677911e+006 1.000427946237e+006 1.000489811960e+006 1.000414664785e+006 1.000313836067e+006 1.000313987751e+006 1.000498359899e+006 1.000408818337e+006 1.000327864019e+006 1.000340987643e+006 1.000497663529e+006 1.000341170145e+006 1.000446227166e+006 1.000387930609e+006 1.000402197483e+006 1.000421631594e+006 1.000446222566e+006 1.000421624203e+006 1.000361598880e+006 1.000439454694e+006 1.000362950944e+006 1.000425543763e+006 1.000532759579e+006 1.000532286961e+006 1.000425231578e+006 1.000497151481e+006 1.000306048521e+006 1.000306038609e+006 1.000443051756e+006 1.000353745729e+006 1.000443061686e+006 1.000458696039e+006 1.000432444148e+006 1.000458683857e+006 1.000439195860e+006 1.000439185142e+006 1.000392241650e+006 1.000461384642e+006 1.000461377554e+006 1.000451405992e+006 1.000358558208e+006 1.000451213046e+006 1.000390667345e+006 1.000359371181e+006 1.000377332997e+006 1.000355130771e+006 1.000403162004e+006 1.000316866380e+006 1.000400778715e+006 1.000312137391e+006 1.000131981111e+006 1.000155846234e+006 1.000466969238e+006 1.000573491680e+006 1.000275636422e+006 1.000597752106e+006 1.000991903215e+006 1.000382621761e+006 1.000930154815e+006 1.000661692938e+006 1.000317108816e+006 1.000480406681e+006 1.000536869547e+006 1.000098436200e+006 1.000103629186e+006 1.000031268408e+006 1.001366785384e+006 1.000888977362e+006 1.000239207795e+006 1.000728707926e+006 1.000843509643e+006 1.000417088879e+006 1.000760541233e+006 9.998761059489e+005 1.000530411261e+006 1.000407935779e+006 1.000977527736e+006 1.000598500775e+006 1.000197802954e+006 1.000200288379e+006 1.000449366116e+006 1.000960575558e+006 1.000143941868e+006 1.000888354522e+006 1.000503950056e+006 1.000803069088e+006 1.000097187882e+006 1.000160940748e+006 1.000170196489e+006 1.000692692999e+006 1.000122985684e+006 1.000842537732e+006 1.000477949132e+006 1.000659047507e+006 1.000829458391e+006 1.000597032663e+006 1.000304107865e+006 1.000620702402e+006 1.000276771484e+006 9.999195478289e+005 1.000492981528e+006 1.000872026484e+006 1.000443021161e+006 1.000030233982e+006 1.000019693643e+006 1.000333831921e+006 1.000393679765e+006 1.000396407241e+006 1.000689429381e+006 1.000685232011e+006 1.000859846250e+006 1.000503237504e+006 1.000636401879e+006 1.000054885684e+006 1.000911421913e+006 9.999821491203e+005 1.000481698074e+006 1.000405374721e+006 1.000488703469e+006 1.000536981928e+006 9.999387176890e+005 1.000097152675e+006 1.000852868900e+006 9.999704801725e+005 1.000049981218e+006 1.000622347525e+006 1.000606928443e+006 1.000084192243e+006 1.000123077970e+006 1.000084999691e+006 1.000376392513e+006 1.000086449459e+006 1.000568671433e+006 1.000661690262e+006 1.000612249603e+006 1.000090000101e+006 1.000285887397e+006 1.000784817699e+006 1.000878727148e+006 1.000544012422e+006 1.000184499957e+006 1.000240063633e+006 1.000002063264e+006 9.999129355331e+005 1.000628922367e+006 1.000882431187e+006 9.998669331636e+005 9.999525809113e+005 1.000623328567e+006 1.000990430926e+006 1.000504873416e+006 1.000007057024e+006 1.000694413985e+006 1.000817904272e+006 1.000490876087e+006 1.000116021067e+006 1.000913097832e+006 1.000376395634e+006 1.000460999426e+006 1.000368092196e+006 1.000378303373e+006 9.999401741069e+005 1.000088409049e+006 1.000597940870e+006 1.000925025067e+006 1.000401156886e+006 9.999696842423e+005 1.000257400167e+006 1.000652784775e+006 1.000656501996e+006 1.000925927791e+006 1.000135902596e+006 1.000012222564e+006 1.000856940705e+006 1.000806931575e+006 1.000813388808e+006 1.000467056993e+006 9.999106938649e+005 1.000498698981e+006 1.000933511277e+006 1.000385369217e+006 1.000919278250e+006 1.000924571599e+006 1.000641174098e+006 9.999853837960e+005 1.000884094728e+006 1.000881070895e+006 9.998976841360e+005 1.000091065272e+006 1.000660766129e+006 1.000419176099e+006 1.000146381423e+006 1.000227369711e+006 1.000894241413e+006 1.000413022173e+006 1.000578523437e+006 1.000919637379e+006 1.000115085330e+006 1.000338595135e+006 1.000626582040e+006 1.000195441221e+006 1.000283506415e+006 1.000742069027e+006 1.000098342243e+006 1.000214137022e+006 1.000118691283e+006 1.000932047402e+006 1.000994017199e+006 9.999865068782e+005 1.000053026730e+006 1.000175643436e+006 1.000711369173e+006 1.000395352074e+006 1.000427201256e+006 1.000962618356e+006 1.000711779551e+006 1.000407382450e+006 1.000537907869e+006 1.000878899885e+006 1.000887429921e+006 1.000589858021e+006 1.000530569495e+006 1.000122619279e+006 1.000361766117e+006 1.000070136841e+006 1.000989146951e+006 9.998639547176e+005 1.000698942185e+006 1.000499943614e+006 1.000183391909e+006 1.000024333697e+006 1.000780273711e+006 1.000003847123e+006 9.998971414945e+005 1.000340332494e+006 1.000820379108e+006 1.000354082921e+006 1.000730887465e+006 1.000510164247e+006 1.000332573425e+006 1.000873617067e+006 1.000140099566e+006 9.998630595829e+005 1.000843442269e+006 1.000270287119e+006 1.000906454127e+006 1.000062786944e+006 1.000812258935e+006 1.000412331838e+006 9.998948983814e+005 1.000831098931e+006 1.000198638741e+006 1.000896475614e+006 1.000007861245e+006 1.000428475030e+006 1.000643515137e+006 9.999800753945e+005 1.000001050503e+006 1.000697510581e+006 1.000800820302e+006 1.000776207425e+006 1.000582668605e+006 1.000214453415e+006 1.000503801684e+006 1.000884306613e+006 1.000664093651e+006 1.000081760236e+006 1.000880560393e+006 1.000253891583e+006 9.999329007664e+005 1.000819172778e+006 1.000320538847e+006 1.000466507699e+006 1.000470324641e+006 1.000503161844e+006 1.000866976215e+006 1.000439538463e+006 1.000286211955e+006 1.000730465166e+006 9.999531974893e+005 1.000678015876e+006 1.000174826712e+006 1.000719415104e+006 1.000267691131e+006 1.000618093571e+006 1.000275062348e+006 1.000223849320e+006 1.000758469380e+006 1.000907792490e+006 1.000649191162e+006 9.999205739413e+005 1.000001099560e+006 1.000556615024e+006 1.000026608255e+006 1.000348819677e+006 1.000397982386e+006 1.000464753964e+006 1.000396461762e+006 1.000460817650e+006 9.999530259362e+005 1.000252425252e+006 9.999777993285e+005 9.999243654520e+005 1.000285885804e+006 1.000450382965e+006 1.000520905713e+006 1.000450139690e+006 1.000825858475e+006 1.000360797096e+006 1.000196544685e+006 1.000473527544e+006 1.000241463856e+006 9.999494102014e+005 1.000773256590e+006 1.000929320836e+006 9.999382041073e+005 9.998683004977e+005 1.000943425927e+006 9.998823781786e+005 1.000162465336e+006 1.000723460327e+006 1.001258497252e+006 1.000925874795e+006 1.000679362177e+006 1.000919558549e+006 1.000547508985e+006 1.000759258303e+006 1.000682209926e+006 1.000632710795e+006 1.000122108940e+006 1.000295740901e+006 1.000295309056e+006 1.000721555720e+006 1.000655351389e+006 1.000146746383e+006 1.000668843056e+006 1.000654754808e+006 1.000738541195e+006 1.000867226042e+006 1.000521038105e+006 1.000021592466e+006 1.000364203810e+006 1.000303482569e+006 1.000776546831e+006 1.000894060731e+006 1.000820321798e+006 1.000212626848e+006 1.000649426115e+006 1.000683891048e+006 1.000737266502e+006 1.000551709097e+006 1.000239244621e+006 1.000420651128e+006 1.000504908058e+006 1.000607082267e+006 1.000477295042e+006 1.000416403212e+006 1.000618373577e+006 1.000420683014e+006 1.000380300743e+006 1.000405127346e+006 1.000260380042e+006 1.000366101845e+006 1.000387170349e+006 1.000526038392e+006 1.000311700438e+006 1.000463758995e+006 1.000303395106e+006 1.000508493237e+006 1.000406452195e+006 1.000520856403e+006 1.000526460331e+006 1.000521230086e+006 1.000517617321e+006 1.000382394443e+006 1.000346608303e+006 1.000224713168e+006 1.000346586675e+006 1.000226991049e+006 1.000665230960e+006 1.000390641828e+006 1.000580636547e+006 1.000395780560e+006 1.000589191235e+006 1.000444730869e+006 1.000372030775e+006 1.000455404044e+006 1.000385904209e+006 1.000382987475e+006 1.000444178346e+006 1.000454399687e+006 1.000357776959e+006 1.000464250485e+006 1.000566056406e+006 1.000460767274e+006 1.000592855961e+006 1.000267057602e+006 1.000328894540e+006 1.000260648445e+006 1.000316445388e+006 1.000555274432e+006 1.000475571048e+006 1.000555781422e+006 1.000476614958e+006 1.000440812230e+006 1.000211699103e+006 1.000655905237e+006 1.000607371055e+006 1.000455804726e+006 1.000369125261e+006 1.000213726111e+006 1.000442081306e+006 1.000651039162e+006 1.000608250538e+006 1.000456663955e+006 1.000370056409e+006 1.000333096443e+006 1.000255455501e+006 1.000447276312e+006 1.000335048728e+006 1.000250700891e+006 1.000451314369e+006 1.000687448274e+006 1.000526523355e+006 1.000599720953e+006 1.000685122308e+006 1.000504875723e+006 1.000600796643e+006 1.000113118741e+006 1.000482866004e+006 1.000129809019e+006 1.000113730997e+006 1.000513377599e+006 1.000147239225e+006 1.000760317823e+006 1.000169353172e+006 1.000730922474e+006 1.000160142632e+006 1.000294421780e+006 1.000628075111e+006 1.000294310719e+006 1.000624184153e+006 1.000351147487e+006 1.000468697525e+006 1.000427051052e+006 1.000353236542e+006 1.000468175506e+006 1.000427366198e+006 1.000310206491e+006 1.000527508511e+006 1.000309806261e+006 1.000526765909e+006 1.000550953270e+006 1.000553964666e+006 1.000488973405e+006 1.000487989164e+006 1.000197446636e+006 1.000189628444e+006 1.000173055325e+006 1.000664073453e+006 1.000125419965e+006 1.000462663370e+006 1.000645536892e+006 1.000619180977e+006 1.000199235102e+006 1.000208750565e+006 1.000221941398e+006 1.000635767279e+006 1.000294728828e+006 1.000637681704e+006 1.000293265912e+006 1.000466836425e+006 1.000168812428e+006 1.000451713532e+006 1.000161969087e+006 1.000151949876e+006 1.000710383207e+006 1.000254110026e+006 9.999609222950e+005 1.000814567656e+006 1.000775606072e+006 1.000675770016e+006 1.000611522255e+006 1.000507219287e+006 1.000655101142e+006 1.000632832586e+006 1.000591579691e+006 1.000199185923e+006 1.000408243297e+006 1.000102011906e+006 1.000470611166e+006 1.000256142333e+006 1.000122987788e+006 1.000264211754e+006 1.000197174869e+006 1.000260321391e+006 1.000799640985e+006 1.000821603192e+006 1.000266875991e+006 1.000668065931e+006 1.000256381979e+006 1.000451821837e+006 1.000683037067e+006 1.000000000000e+006 1.000000000000e+006 1.000310711551e+006 1.000708900140e+006 1.000907174642e+006 1.000187597691e+006 1.000751211532e+006 1.000755254235e+006 1.000007123650e+006 1.000868816930e+006 1.000390281171e+006 1.000816298798e+006 1.000172248155e+006 1.000122731754e+006 1.000110984195e+006 9.999689732047e+005 1.000306058176e+006 1.000186602620e+006 1.000769209079e+006 1.000900379017e+006 1.000414576764e+006 1.000153033744e+006 1.000171568237e+006 1.000783437770e+006 1.000743444641e+006 1.000716204857e+006 1.000380762531e+006 1.000378967447e+006 1.000911148151e+006 1.000384725755e+006 1.000384934410e+006 1.000239476163e+006 1.000338308968e+006 1.000761886538e+006 1.000212123133e+006 1.000093874017e+006 9.999538245136e+005 1.000280758510e+006 1.000532744905e+006 1.000200134191e+006 1.000423291533e+006 1.000115248802e+006 1.000228288924e+006 1.000077068149e+006 1.000855796013e+006 1.000639770877e+006 1.000334274413e+006 1.000822173871e+006 1.000462151819e+006 1.000829161092e+006 1.000546437718e+006 1.000443803591e+006 1.000614891744e+006 1.000848348411e+006 1.000725475286e+006 9.999645953341e+005 1.000276428325e+006 1.000887295476e+006 1.000418839777e+006 1.000418299257e+006 1.000919628091e+006 1.000622315727e+006 1.000454119310e+006 1.000216415420e+006 1.000847040808e+006 1.000733910019e+006 9.999994458451e+005 1.000344171946e+006 1.000407557295e+006 1.000624213506e+006 1.000260283797e+006 1.000191013173e+006 1.000849436326e+006 1.000650033089e+006 1.000845076098e+006 1.000875386788e+006 1.000632925174e+006 9.999538024534e+005 1.000092468704e+006 1.000272350722e+006 1.000759139948e+006 1.000888246269e+006 1.000250801125e+006 9.999462411310e+005 1.000428307540e+006 1.000158732548e+006 1.000686523259e+006 1.000956084560e+006 1.000732359417e+006 1.000727916694e+006 1.000787362902e+006 1.000755567034e+006 1.000768460138e+006 1.000863973591e+006 1.000778197171e+006 1.000218006389e+006 1.000244514202e+006 1.000092123639e+006 1.000297813829e+006 1.000692140076e+006 1.000253895537e+006 1.000162087749e+006 1.000092216256e+006 1.000708594299e+006 1.000726384942e+006 1.000867512938e+006 1.000231679515e+006 1.000254337860e+006 1.000303152653e+006 1.000386153392e+006 1.000385883859e+006 1.000467632500e+006 1.000463945500e+006 1.000836283730e+006 1.000713153216e+006 1.000258553497e+006 1.000264336098e+006 1.000274261195e+006 1.000287176447e+006 1.000699694287e+006 1.000706174381e+006 
        </DataArray>
        <DataArray type="Float64" Name="MEAN_PRESSURE" format="ascii">