<?xml version="1.0"?>
<VTKFile type="UnstructuredGrid" version="0.1" byte_order="LittleEndian">
  <UnstructuredGrid>
    <Piece NumberOfPoints="963" NumberOfCells="1758">
      <Points>
        <DataArray type="Float64" NumberOfComponents="3" format="ascii">
          1.600262034769e+002 1.257989505921e+001 0.000000000000e+000
          1.635346199106e+002 2.000000000000e+001 0.000000000000e+000
          1.554515002484e+002 2.000000000000e+001 0.000000000000e+000
          3.459306441575e+000 1.667621982453e+001 0.000000000000e+000
          3.062266634850e+000 1.705413688405e+001 0.000000000000e+000
          2.873380769063e+000 1.650527725632e+001 0.000000000000e+000
          1.514088444034e+000 1.865189448105e+001 0.000000000000e+000
          1.967902677551e+000 1.834103489750e+001 0.000000000000e+000
          2.034564522234e+000 1.890806711991e+001 0.000000000000e+000
          2.478275273162e+000 1.702762299110e+001 0.000000000000e+000
          2.952621433467e+000 1.774357373580e+001 0.000000000000e+000
          2.237893542067e+000 1.782457469610e+001 0.000000000000e+000
          3.313583922780e+000 3.274674552047e+000 0.000000000000e+000
          2.561432712787e+000 3.156040447793e+000 0.000000000000e+000
          3.047531989640e+000 2.714594415171e+000 0.000000000000e+000
          2.750804692284e+000 3.936058190693e+000 0.000000000000e+000
          2.599039179818e+000 2.451529939148e+000 0.000000000000e+000
          3.139686649742e+000 2.186924052088e+000 0.000000000000e+000
          1.919984553221e+000 3.358010194268e+000 0.000000000000e+000
          1.960900304591e+000 2.773319745251e+000 0.000000000000e+000
          1.894565400391e+000 1.733316857565e+001 0.000000000000e+000
          0.000000000000e+000 1.538461538461e+001 0.000000000000e+000
          5.816229249735e-001 1.567919247147e+001 0.000000000000e+000
          0.000000000000e+000 1.589743589743e+001 0.000000000000e+000
          9.766405669483e+001 2.000000000000e+001 0.000000000000e+000
          1.010672711393e+002 1.500000000000e+001 0.000000000000e+000
          1.029329279907e+002 2.000000000000e+001 0.000000000000e+000
          9.588503785413e+001 1.500000000000e+001 0.000000000000e+000
          1.039231647117e+002 1.000000000000e+001 0.000000000000e+000
          9.860830811271e+001 1.000000000000e+001 0.000000000000e+000
          1.010672711397e+002 5.000000000000e+000 0.000000000000e+000
          9.766405669557e+001 0.000000000000e+000 0.000000000000e+000
          1.029329279915e+002 0.000000000000e+000 0.000000000000e+000
          9.588503785449e+001 5.000000000000e+000 0.000000000000e+000
          7.892434178002e+001 2.000000000000e+001 0.000000000000e+000
          8.173808356948e+001 1.500000000000e+001 0.000000000000e+000
          8.328058896910e+001 2.000000000000e+001 0.000000000000e+000
          7.679274808893e+001 1.514423393202e+001 0.000000000000e+000
          7.970503892166e+001 1.000000000000e+001 0.000000000000e+000
          8.409930620613e+001 1.000000000000e+001 0.000000000000e+000
          8.173808356980e+001 5.000000000000e+000 0.000000000000e+000
          7.892434178065e+001 0.000000000000e+000 0.000000000000e+000
          8.328058896976e+001 0.000000000000e+000 0.000000000000e+000
          7.679274808925e+001 4.855766067979e+000 0.000000000000e+000
          1.084583939765e+002 2.000000000000e+001 0.000000000000e+000
          1.122011528880e+002 1.500000000000e+001 0.000000000000e+000
          1.142529496098e+002 2.000000000000e+001 0.000000000000e+000
          1.065018792644e+002 1.500000000000e+001 0.000000000000e+000
          1.153419838410e+002 1.000000000000e+001 0.000000000000e+000
          1.094968549120e+002 1.000000000000e+001 0.000000000000e+000
          1.122011528884e+002 5.000000000000e+000 0.000000000000e+000
          1.084583939773e+002 0.000000000000e+000 0.000000000000e+000
          1.142529496106e+002 0.000000000000e+000 0.000000000000e+000
          1.065018792648e+002 5.000000000000e+000 0.000000000000e+000
          1.181779812237e+002 1.500000000000e+001 0.000000000000e+000
          1.203297004775e+002 2.000000000000e+001 0.000000000000e+000
          1.214717707847e+002 1.000000000000e+001 0.000000000000e+000
          1.181779812242e+002 5.000000000000e+000 0.000000000000e+000
          1.203297004784e+002 0.000000000000e+000 0.000000000000e+000
          7.477039199538e+001 2.000000000000e+001 0.000000000000e+000
          7.551483469771e+001 1.000000000000e+001 0.000000000000e+000
          7.296959467356e+001 1.385646386579e+001 0.000000000000e+000
          7.477039199599e+001 0.000000000000e+000 0.000000000000e+000
          7.296959467379e+001 6.143536134207e+000 0.000000000000e+000
          6.918477198508e+001 1.366665532880e+001 0.000000000000e+000
          6.746477463053e+001 1.000000000000e+001 0.000000000000e+000
          7.151921701478e+001 1.000000000000e+001 0.000000000000e+000
          6.918477198529e+001 6.333344671202e+000 0.000000000000e+000
          9.263986346551e+001 2.000000000000e+001 0.000000000000e+000
          9.094345943471e+001 1.500000000000e+001 0.000000000000e+000
          9.354026529380e+001 1.000000000000e+001 0.000000000000e+000
          9.263986346623e+001 0.000000000000e+000 0.000000000000e+000
          9.094345943506e+001 5.000000000000e+000 0.000000000000e+000
          1.244344522558e+002 1.503312574389e+001 0.000000000000e+000
          1.267023895482e+002 2.000000000000e+001 0.000000000000e+000
          1.285510028831e+002 1.020485663255e+001 0.000000000000e+000
          1.244344522563e+002 5.033125743893e+000 0.000000000000e+000
          1.267023895491e+002 0.000000000000e+000 0.000000000000e+000
          8.623136018348e+001 1.500000000000e+001 0.000000000000e+000
          8.784898578901e+001 2.000000000000e+001 0.000000000000e+000
          8.870757443665e+001 1.000000000000e+001 0.000000000000e+000
          8.623136018382e+001 5.000000000000e+000 0.000000000000e+000
          8.784898578969e+001 0.000000000000e+000 0.000000000000e+000
          4.872472752737e+000 0.000000000000e+000 0.000000000000e+000
          4.204479229380e+000 6.412840757122e-001 0.000000000000e+000
          4.157376851380e+000 0.000000000000e+000 0.000000000000e+000
          5.192892237051e+000 7.280355562789e-001 0.000000000000e+000
          1.306630304579e+000 6.212843344151e-001 0.000000000000e+000
          1.050228457081e+000 0.000000000000e+000 0.000000000000e+000
          1.614006202528e+000 0.000000000000e+000 0.000000000000e+000
          1.266763055794e+001 1.554696422866e+001 0.000000000000e+000
          1.263589100638e+001 1.657720348306e+001 0.000000000000e+000
          1.174268578662e+001 1.633018318031e+001 0.000000000000e+000
          6.588835695415e+000 7.505681085529e+000 0.000000000000e+000
          6.456871838389e+000 6.658671683861e+000 0.000000000000e+000
          7.208099140752e+000 7.038822846307e+000 0.000000000000e+000
          4.412623338166e+000 9.138856431549e+000 0.000000000000e+000
          4.024185797397e+000 8.708923235630e+000 0.000000000000e+000
          4.601447447338e+000 8.507292699647e+000 0.000000000000e+000
          5.325995059827e-001 6.308307298123e+000 0.000000000000e+000
          0.000000000000e+000 6.666666666655e+000 0.000000000000e+000
          0.000000000000e+000 6.153846153835e+000 0.000000000000e+000
          3.986461521768e+000 8.146114708182e+000 0.000000000000e+000
          2.411603373059e+000 6.510912162016e+000 0.000000000000e+000
          1.807525763324e+000 6.938080373464e+000 0.000000000000e+000
          1.686779352680e+000 6.178928843543e+000 0.000000000000e+000
          2.510760620997e+000 7.229076682239e+000 0.000000000000e+000
          3.166991983438e+000 6.906135870389e+000 0.000000000000e+000
          3.452788915829e+000 6.276851216781e+000 0.000000000000e+000
          3.340122000742e+000 5.656365440432e+000 0.000000000000e+000
          4.047936562877e+000 5.873561587395e+000 0.000000000000e+000
          1.802463974828e+000 1.292744708026e+001 0.000000000000e+000
          1.383967161336e+000 1.330299552906e+001 0.000000000000e+000
          1.329690820161e+000 1.266495373033e+001 0.000000000000e+000
          2.267922292389e+000 1.431116835808e+001 0.000000000000e+000
          2.854613987538e+000 1.466581611369e+001 0.000000000000e+000
          2.339869278674e+000 1.493776402241e+001 0.000000000000e+000
          4.690956878046e+000 3.115726773737e+000 0.000000000000e+000
          4.014773718330e+000 2.850429494150e+000 0.000000000000e+000
          4.643493383296e+000 2.293565471327e+000 0.000000000000e+000
          5.186083944243e+000 1.661927139510e+000 0.000000000000e+000
          5.452965511439e+000 2.679881546544e+000 0.000000000000e+000
          5.360460104304e+000 3.539902157655e+000 0.000000000000e+000
          6.197986304192e+000 3.115706366113e+000 0.000000000000e+000
          7.929356606585e-001 1.634705420870e+001 0.000000000000e+000
          1.222819867503e+000 1.599517159419e+001 0.000000000000e+000
          1.215723647926e+000 1.546209040954e+001 0.000000000000e+000
          1.770601276021e+000 1.521217632514e+001 0.000000000000e+000
          1.242830150061e+000 1.493919370237e+001 0.000000000000e+000
          1.166444124506e+000 4.610115997312e+000 0.000000000000e+000
          1.851620547934e+000 4.486892013458e+000 0.000000000000e+000
          1.494152702314e+000 5.145235789232e+000 0.000000000000e+000
          1.353088107040e+000 4.090803091641e+000 0.000000000000e+000
          3.802567455935e+000 5.084697985980e+000 0.000000000000e+000
          1.014840185783e+000 5.494768572296e+000 0.000000000000e+000
          8.831064584820e-001 5.109311190608e+000 0.000000000000e+000
          1.727903958959e+000 1.618384478933e+001 0.000000000000e+000
          1.343261525342e+000 1.651800241408e+001 0.000000000000e+000
          3.308120627291e+000 8.593311644828e+000 0.000000000000e+000
[...]
      <PointData Scalars="LIQUID_PRESSURE">
        <DataArray type="Float64" Name="LIQUID_PRESSURE" format="ascii">
          1.000480557971e+006 9.997748176779e+005 1.000236685089e+006 9.998484505035e+005 9.999888065886e+005 1.000180341429e+006 1.000113814554e+006 1.000687809217e+006 1.000725420482e+006 1.000717449409e+006 1.000084531060e+006 1.000764524638e+006 9.997808664354e+005 1.000561231303e+006 9.999758860239e+005 1.000248759120e+006 1.000557421744e+006 9.998513262202e+005 1.000660490992e+006 1.000723955129e+006 1.000571759271e+006 1.000621017268e+006 1.000254252761e+006 1.000616372799e+006 1.000211210656e+006 1.000210646152e+006 1.000207180051e+006 1.000211748928e+006 1.000206423470e+006 1.000210583365e+006 1.000210611155e+006 1.000211179779e+006 1.000207223994e+006 1.000211759813e+006 1.000226709616e+006 1.000222033805e+006 1.000223743268e+006 1.000229970348e+006 1.000230634599e+006 1.000220717329e+006 1.000222094869e+006 1.000226845741e+006 1.000223697008e+006 1.000229721521e+006 1.000204108980e+006 1.000200078390e+006 1.000198411997e+006 1.000204444701e+006 1.000196911894e+006 1.000203356456e+006 1.000199963488e+006 1.000204055377e+006 1.000198565099e+006 1.000204491199e+006 1.000194776051e+006 1.000190551263e+006 1.000190621201e+006 1.000195375983e+006 1.000190236772e+006 1.000239303322e+006 1.000224704570e+006 1.000221578192e+006 1.000238923372e+006 1.000221878551e+006 1.000215036172e+006 1.000219972772e+006 1.000258010396e+006 1.000215400948e+006 1.000219586501e+006 1.000215914978e+006 1.000218161443e+006 1.000219580305e+006 1.000215905720e+006 1.000187561734e+006 1.000185207107e+006 1.000176736286e+006 1.000185227626e+006 1.000188291482e+006 1.000225591837e+006 1.000216274656e+006 1.000217093675e+006 1.000225578436e+006 1.000216282957e+006 1.000479172852e+006 1.000632536943e+006 1.000508503093e+006 1.000036077000e+006 9.998883655675e+005 9.997985174537e+005 1.000289117935e+006 1.000333981106e+006 1.000132931768e+006 1.000215226184e+006 1.000776184117e+006 1.000733033610e+006 1.000220170138e+006 1.000761472254e+006 1.000464123993e+006 1.000575045658e+006 1.000261736427e+006 1.000696057204e+006 1.000657656074e+006 1.000443272668e+006 1.000684627112e+006 1.000520605991e+006 1.000390947790e+006 1.000553208701e+006 9.998059699271e+005 9.998201748645e+005 9.997856418205e+005 1.000541588497e+006 1.000478551912e+006 9.999314227517e+005 9.998764951874e+005 1.000786695312e+006 1.000185492116e+006 1.000767179935e+006 1.000527499218e+006 1.000478547939e+006 1.000560840469e+006 1.000025400762e+006 9.998579399437e+005 9.998163091920e+005 1.000443464760e+006 1.000056980437e+006 9.997840093321e+005 9.997827345923e+005 1.000438207323e+006 9.997876528865e+005 9.997931019671e+005 1.000476455730e+006 1.000047848490e+006 9.998591427000e+005 1.000122535846e+006 9.998116605689e+005 9.999174740321e+005 1.000336918816e+006 9.998384964176e+005 9.997764863056e+005 1.000393607049e+006 9.997773522507e+005 9.999825242823e+005 1.000033319027e+006 9.998255806310e+005 1.000049177376e+006 9.998768655035e+005 9.999131259203e+005 1.000035219960e+006 1.000020419792e+006 1.000126339795e+006 1.000536835403e+006 1.000556503045e+006 1.000556495436e+006 9.998078585597e+005 1.000313792271e+006 1.000757252814e+006 1.000478417085e+006 1.000475698475e+006 1.000015167386e+006 9.998226596391e+005 1.000201478442e+006 1.000014419326e+006 9.998900114739e+005 9.999023433468e+005 9.999539553990e+005 1.000389771917e+006 1.000541418182e+006 1.000542020127e+006 1.000548918040e+006 1.000751905136e+006 1.000164840590e+006 1.000675409784e+006 1.000039043794e+006 9.998094811545e+005 1.000408053296e+006 9.998347812674e+005 1.000315925828e+006 1.000528624498e+006 1.000579684024e+006 9.997798714339e+005 1.000505934841e+006 1.000462850935e+006 1.000030872084e+006 1.000716232879e+006 1.000016129719e+006 1.000176939720e+006 9.998042353955e+005 9.998566624709e+005 1.000417854857e+006 1.000751427303e+006 1.000251858448e+006 1.000603475136e+006 1.000769610941e+006 1.000765169455e+006 9.998585197525e+005 1.000756637760e+006 1.000034387436e+006 1.000599868936e+006 9.999002800150e+005 9.998468427898e+005 1.000551812573e+006 1.000711742463e+006 1.000357376735e+006 9.997900306982e+005 9.997878725702e+005 9.997734308601e+005 1.000223949789e+006 9.998097564513e+005 9.998558692039e+005 9.999140919069e+005 9.998161719763e+005 1.000176652256e+006 1.000737253869e+006 1.000270642455e+006 1.000267870461e+006 1.000500837781e+006 1.000756127892e+006 9.998197575758e+005 1.000207170004e+006 9.998556171036e+005 1.000677376307e+006 1.000089337632e+006 1.000775542215e+006 9.998156396626e+005 1.000125057201e+006 9.998299046036e+005 1.000515717174e+006 1.000666032828e+006 9.999143113571e+005 1.000694783925e+006 9.997833220947e+005 9.998315437198e+005 1.000347535160e+006 9.998620272574e+005 1.000216033027e+006 1.000075907986e+006 1.000494938145e+006 1.000476661386e+006 9.997686012762e+005 1.000815734128e+006 1.000236881338e+006 1.000284499764e+006 1.000272351116e+006 1.000688014659e+006 1.000625028617e+006 1.000657571305e+006 1.000675164569e+006 1.000390888680e+006 1.000467592085e+006 1.000442956447e+006 9.998062696277e+005 1.000233321721e+006 1.000482218765e+006 1.000530601825e+006 1.000517381562e+006 1.000536860393e+006 1.000500563871e+006 1.000529784702e+006 1.000450991273e+006 1.000534559798e+006 1.000530248417e+006 1.000545132755e+006 1.000524046764e+006 1.000182125824e+006 1.000227813462e+006 1.000309618211e+006 1.000288627781e+006 1.000286604858e+006 1.000197199562e+006 1.000214637114e+006 1.000186207165e+006 1.000332865195e+006 1.000292151899e+006 1.000294986799e+006 1.000200122159e+006 1.000213916772e+006 1.000185366322e+006 1.000279370886e+006 1.000363576251e+006 1.000273187792e+006 1.000205968423e+006 1.000186393503e+006 1.000216724398e+006 1.000272911941e+006 1.000362579009e+006 1.000270038917e+006 1.000207018709e+006 1.000242332795e+006 1.000271198798e+006 1.000267463560e+006 1.000249051980e+006 1.000246186744e+006 1.000248369696e+006 1.000271210890e+006 1.000242343904e+006 1.000267453424e+006 1.000249041004e+006 1.000246192722e+006 1.000248364012e+006 1.000198581920e+006 1.000342074979e+006 1.000214287012e+006 1.000251994916e+006 1.000195330327e+006 1.000235008487e+006 1.000342069083e+006 1.000198609688e+006 1.000214267108e+006 1.000251984840e+006 1.000195329510e+006 1.000235009484e+006 1.000340917715e+006 1.000280362975e+006 1.000169688930e+006 1.000208436423e+006 1.000280325663e+006 1.000340845577e+006 1.000169677842e+006 1.000208099075e+006 1.000305232131e+006 1.000179281987e+006 1.000367987471e+006 1.000221446466e+006 1.000341110678e+006 1.000300634216e+006 1.000179205239e+006 1.000305221240e+006 1.000368126768e+006 1.000221466426e+006 1.000341117712e+006 1.000300636281e+006 1.000187495876e+006 1.000177401469e+006 1.000213407349e+006 1.000186732331e+006 1.000177759234e+006 1.000213221064e+006 1.000267010017e+006 1.000312972518e+006 1.000258490291e+006 1.000267016738e+006 1.000312942946e+006 1.000258457542e+006 1.000182821008e+006 1.000182858707e+006 1.000317365894e+006 1.000244793451e+006 1.000197334779e+006 1.000202366121e+006 1.000316785377e+006 1.000202552157e+006 1.000275909219e+006 1.000240081301e+006 1.000247552968e+006 1.000258749781e+006 1.000275906503e+006 1.000258747700e+006 1.000219331849e+006 1.000269359633e+006 1.000220252640e+006 1.000261538706e+006 1.000352348633e+006 1.000351800404e+006 1.000261046761e+006 1.000322034909e+006 1.000175153500e+006 1.000175130511e+006 1.000277498352e+006 1.000209588573e+006 1.000277505100e+006 1.000287839200e+006 1.000268408042e+006 1.000287831838e+006 1.000279025052e+006 1.000279065390e+006 1.000241978402e+006 1.000286595621e+006 1.000286585239e+006 1.000273583790e+006 1.000221168734e+006 1.000273810395e+006 1.000238064166e+006 1.000223525515e+006 1.000234657456e+006 1.000220518742e+006 1.000242411169e+006 1.000199192074e+006 1.000242028612e+006 1.000196248059e+006 9.999927483927e+005 1.000007967441e+006 1.000307110884e+006 1.000400928316e+006 1.000115551099e+006 1.000419841635e+006 1.000780142471e+006 1.000225205528e+006 1.000708408515e+006 1.000495504220e+006 1.000169225613e+006 1.000305602214e+006 1.000391225341e+006 9.999558181714e+005 1.000524289400e+006 9.998079213140e+005 1.000767568132e+006 1.000704574708e+006 1.000084205919e+006 1.000546891109e+006 1.000651678430e+006 1.000252773521e+006 1.000564057006e+006 9.997517852801e+005 1.000357640191e+006 1.000240099510e+006 1.000760092717e+006 1.000414435078e+006 1.000057601675e+006 1.000049548956e+006 1.000284599271e+006 1.000747410592e+006 1.000003707038e+006 1.000700232593e+006 1.000361085138e+006 1.000610606920e+006 9.999402958563e+005 1.000022351598e+006 1.000028140141e+006 1.000513575546e+006 9.999759100176e+005 1.000650206127e+006 1.000301647311e+006 1.000485853194e+006 1.000634019125e+006 1.000420100035e+006 1.000171744349e+006 1.000437753844e+006 1.000115898964e+006 9.997885311739e+005 1.000315591216e+006 1.000677307317e+006 1.000292298717e+006 9.999034668455e+005 9.998842913244e+005 1.000174398699e+006 1.000231515266e+006 1.000241469483e+006 1.000518086812e+006 1.000508982083e+006 1.000668423803e+006 1.000327780701e+006 1.000450253757e+006 9.999096337428e+005 1.000720104922e+006 9.998551137806e+005 1.000314754474e+006 1.000250810236e+006 1.000323064178e+006 1.000361140051e+006 9.998109063434e+005 9.999565419131e+005 1.000661857604e+006 9.998386013197e+005 9.999205740949e+005 1.000448932540e+006 1.000422616302e+006 9.999526848276e+005 9.999777789624e+005 9.999396771741e+005 1.000210822348e+006 9.999504297687e+005 1.000395292558e+006 1.000487443354e+006 1.000429311425e+006 9.999472428913e+005 1.000134752182e+006 1.000594448851e+006 1.000678113068e+006 1.000366211848e+006 1.000037724419e+006 1.000088681141e+006 9.998711783645e+005 9.997873857726e+005 1.000460057543e+006 1.000689985773e+006 9.997476550314e+005 9.998315195089e+005 1.000444234673e+006 1.000776800083e+006 1.000338047478e+006 9.998823470742e+005 1.000512943100e+006 1.000624392168e+006 1.000324911621e+006 9.999794361907e+005 1.000723878575e+006 1.000222699998e+006 1.000295114728e+006 1.000196841936e+006 1.000207025386e+006 9.998244031370e+005 9.999487815039e+005 1.000433302388e+006 1.000727635344e+006 1.000247454924e+006 9.998449574357e+005 1.000105771696e+006 1.000482075499e+006 1.000483962882e+006 1.000722657536e+006 9.999904497824e+005 9.998905704181e+005 1.000687353386e+006 1.000619787341e+006 1.000628653201e+006 1.000296391380e+006 9.997885028747e+005 1.000357246357e+006 1.000748193290e+006 1.000233905300e+006 1.000728680455e+006 1.000730305351e+006 1.000463307773e+006 9.998538572129e+005 1.000691288430e+006 1.000672479092e+006 9.997723808795e+005 9.999586625294e+005 1.000478945718e+006 1.000263663899e+006 1.000000517777e+006 1.000078062185e+006 1.000698060050e+006 1.000261856309e+006 1.000397808376e+006 1.000713461432e+006 9.999654297972e+005 1.000182061410e+006 1.000445532614e+006 1.000044092321e+006 1.000132730547e+006 1.000558793551e+006 9.999608196326e+005 1.000069575022e+006 9.999811536250e+005 1.000731663829e+006 1.000773852913e+006 9.998645274074e+005 9.999187292503e+005 1.000037925732e+006 1.000530548720e+006 1.000234372792e+006 1.000262855833e+006 1.000747173470e+006 1.000512359288e+006 1.000242502801e+006 1.000369962386e+006 1.000699609303e+006 1.000689192938e+006 1.000413759777e+006 1.000361514122e+006 9.999726404119e+005 1.000213880666e+006 9.999379873321e+005 1.000771124498e+006 9.997456476911e+005 1.000536038967e+006 1.000328767095e+006 1.000036133782e+006 9.998884370063e+005 1.000603289429e+006 9.998832469090e+005 9.997795996341e+005 1.000207756903e+006 1.000632147426e+006 1.000195286588e+006 1.000554260310e+006 1.000344928978e+006 1.000180301843e+006 1.000682472540e+006 9.999948875255e+005 9.997535526625e+005 1.000642351259e+006 1.000119168962e+006 1.000700579146e+006 9.999211011752e+005 1.000625599474e+006 1.000261758791e+006 9.997722328130e+005 1.000655795049e+006 1.000033394365e+006 1.000708108582e+006 9.998767174693e+005 1.000284968745e+006 1.000488895267e+006 9.998487810951e+005 9.998659863704e+005 1.000519351615e+006 1.000133133474e+006 1.000290419731e+006 1.000176380951e+006 1.000055092354e+006 1.000361491820e+006 1.000680562287e+006 1.000476810464e+006 9.999452192030e+005 1.000695664194e+006 1.000098597035e+006 9.998033856370e+005 1.000646051187e+006 1.000175672734e+006 1.000280361071e+006 1.000282417954e+006 1.000360973959e+006 1.000674570542e+006 1.000265091788e+006 1.000135431268e+006 1.000553998679e+006 9.998284739358e+005 1.000494103478e+006 1.000051581017e+006 1.000532120324e+006 1.000112792855e+006 1.000456730603e+006 1.000115808531e+006 1.000075369682e+006 9.991237798413e+005 1.000796492302e+006 1.000466654527e+006 9.997924229125e+005 9.998629250666e+005 1.000390519910e+006 9.998832521375e+005 1.000210014829e+006 1.000229648829e+006 1.000294845804e+006 1.000229216124e+006 1.000291915876e+006 9.998251543794e+005 1.000123469133e+006 9.998463931596e+005 9.998083699881e+005 1.000148413672e+006 1.000285893287e+006 1.000343993326e+006 1.000285648980e+006 1.000646682205e+006 1.000205203101e+006 1.000040857754e+006 1.000307215952e+006 1.000090681810e+006 9.998259859650e+005 1.000580029787e+006 1.000733385122e+006 9.998130758154e+005 9.997522506822e+005 1.000727994089e+006 9.997511364192e+005 1.000016561042e+006 1.000542601081e+006 1.000711763016e+006 1.000514809262e+006 1.000524751049e+006 1.000701062035e+006 1.000364386814e+006 1.000565745086e+006 1.000496533658e+006 1.000481079858e+006 9.999861570761e+005 1.000185402895e+006 1.000185635290e+006 1.000537581826e+006 1.000477112203e+006 1.000010305301e+006 1.000477195634e+006 1.000466829564e+006 1.000552726115e+006 1.000675962879e+006 1.000353345023e+006 9.998950723072e+005 1.000137577255e+006 1.000104610027e+006 1.000597629377e+006 1.000704436368e+006 1.000622754103e+006 1.000061029639e+006 1.000447468374e+006 1.000523863230e+006 1.000533474743e+006 1.000385431132e+006 1.000098245090e+006 1.000261785567e+006 1.000355908610e+006 1.000422285605e+006 1.000308530398e+006 1.000260032126e+006 1.000430997744e+006 1.000256799967e+006 1.000215783094e+006 1.000246946085e+006 1.000114588230e+006 1.000209242015e+006 1.000224053166e+006 1.000362199786e+006 1.000164732705e+006 1.000296702088e+006 1.000154298690e+006 1.000336607779e+006 1.000252496180e+006 1.000356460056e+006 1.000356507034e+006 1.000356892749e+006 1.000347611265e+006 1.000220607883e+006 1.000193065999e+006 1.000080979933e+006 1.000192208320e+006 1.000082833731e+006 1.000478444573e+006 1.000227730036e+006 1.000409954579e+006 1.000231379551e+006 1.000417504924e+006 1.000284937054e+006 1.000220978993e+006 1.000301260227e+006 1.000232442753e+006 1.000232784039e+006 1.000284085783e+006 1.000301530003e+006 1.000206925349e+006 1.000297151227e+006 1.000386371282e+006 1.000292120693e+006 1.000410606141e+006 1.000119566892e+006 1.000174956766e+006 1.000113916604e+006 1.000162354597e+006 1.000390104931e+006 1.000306268430e+006 1.000390938816e+006 1.000308046109e+006 1.000274453848e+006 1.000068460330e+006 1.000479581735e+006 1.000431176096e+006 1.000291572405e+006 1.000199541849e+006 1.000070145715e+006 1.000275614934e+006 1.000475334073e+006 1.000431860047e+006 1.000292126011e+006 1.000199772893e+006 1.000187764212e+006 1.000102540645e+006 1.000283839705e+006 1.000190402388e+006 1.000099582231e+006 1.000287882017e+006 1.000501847873e+006 1.000358600003e+006 1.000423818430e+006 1.000502153729e+006 1.000337887520e+006 1.000425180396e+006 9.999744987953e+005 1.000320958045e+006 9.999911941269e+005 9.999753914417e+005 1.000344695100e+006 1.000006457021e+006 1.000582046350e+006 1.000034971894e+006 1.000555352238e+006 1.000019430712e+006 1.000145382129e+006 1.000445195348e+006 1.000145018463e+006 1.000442873964e+006 1.000205985972e+006 1.000295202213e+006 1.000262245510e+006 1.000207779910e+006 1.000294578709e+006 1.000262632268e+006 1.000164809262e+006 1.000355327622e+006 1.000164442954e+006 1.000354549449e+006 1.000372696809e+006 1.000374631544e+006 1.000321728489e+006 1.000320610813e+006 1.000062911784e+006 1.000057242772e+006 1.000036355625e+006 1.000487637332e+006 9.999817127832e+005 1.000318800233e+006 1.000473944329e+006 1.000448151629e+006 1.000052101510e+006 1.000059506267e+006 1.000067639635e+006 1.000458942551e+006 1.000147207162e+006 1.000461111225e+006 1.000145922700e+006 1.000300250393e+006 1.000027663224e+006 1.000287536930e+006 1.000022399152e+006 1.000005094621e+006 1.000519192392e+006 1.000100164527e+006 9.998259560891e+005 1.000639753361e+006 1.000585385995e+006 1.000491371503e+006 1.000435196634e+006 1.000337469590e+006 1.000480673481e+006 1.000461772875e+006 1.000422843780e+006 1.000052899216e+006 1.000242218922e+006 9.999737505132e+005 1.000311269311e+006 1.000108818762e+006 9.999800832263e+005 1.000115368223e+006 1.000041255691e+006 1.000122386286e+006 1.000610150215e+006 1.000634074397e+006 1.000117679590e+006 1.000481576889e+006 1.000106303545e+006 1.000309727618e+006 1.000498586130e+006 1.000000000000e+006 1.000000000000e+006 1.000127372241e+006 1.000535324688e+006 1.000704814224e+006 1.000033855948e+006 1.000565913902e+006 1.000566442322e+006 9.998744065119e+005 1.000682354610e+006 1.000236288697e+006 1.000627705029e+006 1.000022788836e+006 9.999819883080e+005 9.999740194770e+005 9.998343150040e+005 1.000159920833e+006 1.000031905759e+006 1.000586492143e+006 1.000709507843e+006 1.000244078174e+006 1.000011413770e+006 1.000024694119e+006 1.000605895176e+006 1.000558830826e+006 1.000538549957e+006 1.000231000223e+006 1.000229907664e+006 1.000709327837e+006 1.000225436712e+006 1.000225580038e+006 1.000074734761e+006 1.000191787512e+006 1.000572194604e+006 1.000064776017e+006 9.999507380141e+005 9.998321537105e+005 1.000121593301e+006 1.000367367651e+006 1.000052456498e+006 1.000257579297e+006 9.999766110232e+005 1.000115301496e+006 1.000132129636e+006 1.000659561373e+006 1.000465858549e+006 1.000298393233e+006 1.000632026124e+006 1.000325788758e+006 1.000633173053e+006 1.000379208099e+006 1.000281281904e+006 1.000276953801e+006 1.000655501629e+006 1.000531391406e+006 9.998280637483e+005 1.000133136302e+006 1.000694473938e+006 1.000256881032e+006 1.000256684568e+006 1.000730201381e+006 1.000471609335e+006 1.000288493681e+006 1.000057602817e+006 1.000666608162e+006 1.000568819631e+006 9.998687140080e+005 1.000189696014e+006 1.000238140222e+006 1.000461604827e+006 1.000108288616e+006 1.000053624239e+006 1.000654187247e+006 1.000482776541e+006 1.000646526278e+006 1.000680153588e+006 1.000456664102e+006 9.998297466436e+005 9.999540445911e+005 1.000218798617e+006 1.000582065562e+006 1.000117742108e+006 1.000097895180e+006 9.998216026460e+005 1.000267399126e+006 1.000018975507e+006 1.000517601702e+006 1.000765259633e+006 1.000552997723e+006 1.000563269850e+006 1.000588617969e+006 1.000561721019e+006 1.000569498727e+006 1.000670103064e+006 1.000593915741e+006 1.000171998613e+006 1.000174744418e+006 1.000416324997e+006 1.000172706159e+006 1.000527146489e+006 1.000186658143e+006 9.996045425878e+005 9.999678884960e+005 1.000550642325e+006 1.000521685080e+006 1.000677523493e+006 1.000151889516e+006 1.000104242580e+006 1.000152722463e+006 1.000232543214e+006 1.000232389049e+006 1.000293120788e+006 1.000289833775e+006 1.000638554888e+006 1.000552996226e+006 1.000119691430e+006 1.000125446930e+006 1.000142636814e+006 1.000153974959e+006 1.000537626073e+006 1.000508313415e+006 
        </DataArray>
        <DataArray type="Float64" Name="MEAN_PRESSURE" format="ascii">