<?xml version="1.0"?>
<VTKFile type="UnstructuredGrid" version="0.1" byte_order="LittleEndian">
  <UnstructuredGrid>
    <Piece NumberOfPoints="963" NumberOfCells="1758">
      <Points>
        <DataArray type="Float64" NumberOfComponents="3" format="ascii">
          1.600262034769e+002 1.257989505921e+001 0.000000000000e+000
          1.635346199106e+002 2.000000000000e+001 0.000000000000e+000
          1.554515002484e+002 2.000000000000e+001 0.000000000000e+000
          3.459306441575e+000 1.667621982453e+001 0.000000000000e+000
          3.062266634850e+000 1.705413688405e+001 0.000000000000e+000
          2.873380769063e+000 1.650527725632e+001 0.000000000000e+000
          1.514088444034e+000 1.865189448105e+001 0.000000000000e+000
          1.967902677551e+000 1.834103489750e+001 0.000000000000e+000
          2.034564522234e+000 1.890806711991e+001 0.000000000000e+000
          2.478275273162e+000 1.702762299110e+001 0.000000000000e+000
          2.952621433467e+000 1.774357373580e+001 0.000000000000e+000
          2.237893542067e+000 1.782457469610e+001 0.000000000000e+000
          3.313583922780e+000 3.274674552047e+000 0.000000000000e+000
          2.561432712787e+000 3.156040447793e+000 0.000000000000e+000
          3.047531989640e+000 2.714594415171e+000 0.000000000000e+000
          2.750804692284e+000 3.936058190693e+000 0.000000000000e+000
          2.599039179818e+000 2.451529939148e+000 0.000000000000e+000
          3.139686649742e+000 2.186924052088e+000 0.000000000000e+000
          1.919984553221e+000 3.358010194268e+000 0.000000000000e+000
          1.960900304591e+000 2.773319745251e+000 0.000000000000e+000
          1.894565400391e+000 1.733316857565e+001 0.000000000000e+000
          0.000000000000e+000 1.538461538461e+001 0.000000000000e+000
          5.816229249735e-001 1.567919247147e+001 0.000000000000e+000
          0.000000000000e+000 1.589743589743e+001 0.000000000000e+000
          9.766405669483e+001 2.000000000000e+001 0.000000000000e+000
          1.010672711393e+002 1.500000000000e+001 0.000000000000e+000
          1.029329279907e+002 2.000000000000e+001 0.000000000000e+000
          9.588503785413e+001 1.500000000000e+001 0.000000000000e+000
          1.039231647117e+002 1.000000000000e+001 0.000000000000e+000
          9.860830811271e+001 1.000000000000e+001 0.000000000000e+000
          1.010672711397e+002 5.000000000000e+000 0.000000000000e+000
          9.766405669557e+001 0.000000000000e+000 0.000000000000e+000
          1.029329279915e+002 0.000000000000e+000 0.000000000000e+000
          9.588503785449e+001 5.000000000000e+000 0.000000000000e+000
          7.892434178002e+001 2.000000000000e+001 0.000000000000e+000
          8.173808356948e+001 1.500000000000e+001 0.000000000000e+000
          8.328058896910e+001 2.000000000000e+001 0.000000000000e+000
          7.679274808893e+001 1.514423393202e+001 0.000000000000e+000
          7.970503892166e+001 1.000000000000e+001 0.000000000000e+000
          8.409930620613e+001 1.000000000000e+001 0.000000000000e+000
          8.173808356980e+001 5.000000000000e+000 0.000000000000e+000
          7.892434178065e+001 0.000000000000e+000 0.000000000000e+000
          8.328058896976e+001 0.000000000000e+000 0.000000000000e+000
          7.679274808925e+001 4.855766067979e+000 0.000000000000e+000
          1.084583939765e+002 2.000000000000e+001 0.000000000000e+000
          1.122011528880e+002 1.500000000000e+001 0.000000000000e+000
          1.142529496098e+002 2.000000000000e+001 0.000000000000e+000
          1.065018792644e+002 1.500000000000e+001 0.000000000000e+000
          1.153419838410e+002 1.000000000000e+001 0.000000000000e+000
          1.094968549120e+002 1.000000000000e+001 0.000000000000e+000
          1.122011528884e+002 5.000000000000e+000 0.000000000000e+000
          1.084583939773e+002 0.000000000000e+000 0.000000000000e+000
          1.142529496106e+002 0.000000000000e+000 0.000000000000e+000
          1.065018792648e+002 5.000000000000e+000 0.000000000000e+000
          1.181779812237e+002 1.500000000000e+001 0.000000000000e+000
          1.203297004775e+002 2.000000000000e+001 0.000000000000e+000
          1.214717707847e+002 1.000000000000e+001 0.000000000000e+000
          1.181779812242e+002 5.000000000000e+000 0.000000000000e+000
          1.203297004784e+002 0.000000000000e+000 0.000000000000e+000
          7.477039199538e+001 2.000000000000e+001 0.000000000000e+000
          7.551483469771e+001 1.000000000000e+001 0.000000000000e+000
          7.296959467356e+001 1.385646386579e+001 0.000000000000e+000
          7.477039199599e+001 0.000000000000e+000 0.000000000000e+000
          7.296959467379e+001 6.143536134207e+000 0.000000000000e+000
          6.918477198508e+001 1.366665532880e+001 0.000000000000e+000
          6.746477463053e+001 1.000000000000e+001 0.000000000000e+000
          7.151921701478e+001 1.000000000000e+001 0.000000000000e+000
          6.918477198529e+001 6.333344671202e+000 0.000000000000e+000
          9.263986346551e+001 2.000000000000e+001 0.000000000000e+000
          9.094345943471e+001 1.500000000000e+001 0.000000000000e+000
          9.354026529380e+001 1.000000000000e+001 0.000000000000e+000
          9.263986346623e+001 0.000000000000e+000 0.000000000000e+000
          9.094345943506e+001 5.000000000000e+000 0.000000000000e+000
          1.244344522558e+002 1.503312574389e+001 0.000000000000e+000
          1.267023895482e+002 2.000000000000e+001 0.000000000000e+000
          1.285510028831e+002 1.020485663255e+001 0.000000000000e+000
          1.244344522563e+002 5.033125743893e+000 0.000000000000e+000
          1.267023895491e+002 0.000000000000e+000 0.000000000000e+000
          8.623136018348e+001 1.500000000000e+001 0.000000000000e+000
          8.784898578901e+001 2.000000000000e+001 0.000000000000e+000
          8.870757443665e+001 1.000000000000e+001 0.000000000000e+000
          8.623136018382e+001 5.000000000000e+000 0.000000000000e+000
          8.784898578969e+001 0.000000000000e+000 0.000000000000e+000
          4.872472752737e+000 0.000000000000e+000 0.000000000000e+000
          4.204479229380e+000 6.412840757122e-001 0.000000000000e+000
          4.157376851380e+000 0.000000000000e+000 0.000000000000e+000
          5.192892237051e+000 7.280355562789e-001 0.000000000000e+000
          1.306630304579e+000 6.212843344151e-001 0.000000000000e+000
          1.050228457081e+000 0.000000000000e+000 0.000000000000e+000
          1.614006202528e+000 0.000000000000e+000 0.000000000000e+000
          1.266763055794e+001 1.554696422866e+001 0.000000000000e+000
          1.263589100638e+001 1.657720348306e+001 0.000000000000e+000
          1.174268578662e+001 1.633018318031e+001 0.000000000000e+000
          6.588835695415e+000 7.505681085529e+000 0.000000000000e+000
          6.456871838389e+000 6.658671683861e+000 0.000000000000e+000
          7.208099140752e+000 7.038822846307e+000 0.000000000000e+000
          4.412623338166e+000 9.138856431549e+000 0.000000000000e+000
          4.024185797397e+000 8.708923235630e+000 0.000000000000e+000
          4.601447447338e+000 8.507292699647e+000 0.000000000000e+000
          5.325995059827e-001 6.308307298123e+000 0.000000000000e+000
          0.000000000000e+000 6.666666666655e+000 0.000000000000e+000
          0.000000000000e+000 6.153846153835e+000 0.000000000000e+000
          3.986461521768e+000 8.146114708182e+000 0.000000000000e+000
          2.411603373059e+000 6.510912162016e+000 0.000000000000e+000
          1.807525763324e+000 6.938080373464e+000 0.000000000000e+000
          1.686779352680e+000 6.178928843543e+000 0.000000000000e+000
          2.510760620997e+000 7.229076682239e+000 0.000000000000e+000
          3.166991983438e+000 6.906135870389e+000 0.000000000000e+000
          3.452788915829e+000 6.276851216781e+000 0.000000000000e+000
          3.340122000742e+000 5.656365440432e+000 0.000000000000e+000
          4.047936562877e+000 5.873561587395e+000 0.000000000000e+000
          1.802463974828e+000 1.292744708026e+001 0.000000000000e+000
          1.383967161336e+000 1.330299552906e+001 0.000000000000e+000
          1.329690820161e+000 1.266495373033e+001 0.000000000000e+000
          2.267922292389e+000 1.431116835808e+001 0.000000000000e+000
          2.854613987538e+000 1.466581611369e+001 0.000000000000e+000
          2.339869278674e+000 1.493776402241e+001 0.000000000000e+000
          4.690956878046e+000 3.115726773737e+000 0.000000000000e+000
          4.014773718330e+000 2.850429494150e+000 0.000000000000e+000
          4.643493383296e+000 2.293565471327e+000 0.000000000000e+000
          5.186083944243e+000 1.661927139510e+000 0.000000000000e+000
          5.452965511439e+000 2.679881546544e+000 0.000000000000e+000
          5.360460104304e+000 3.539902157655e+000 0.000000000000e+000
          6.197986304192e+000 3.115706366113e+000 0.000000000000e+000
          7.929356606585e-001 1.634705420870e+001 0.000000000000e+000
          1.222819867503e+000 1.599517159419e+001 0.000000000000e+000
          1.215723647926e+000 1.546209040954e+001 0.000000000000e+000
          1.770601276021e+000 1.521217632514e+001 0.000000000000e+000
          1.242830150061e+000 1.493919370237e+001 0.000000000000e+000
          1.166444124506e+000 4.610115997312e+000 0.000000000000e+000
          1.851620547934e+000 4.486892013458e+000 0.000000000000e+000
          1.494152702314e+000 5.145235789232e+000 0.000000000000e+000
          1.353088107040e+000 4.090803091641e+000 0.000000000000e+000
          3.802567455935e+000 5.084697985980e+000 0.000000000000e+000
          1.014840185783e+000 5.494768572296e+000 0.000000000000e+000
          8.831064584820e-001 5.109311190608e+000 0.000000000000e+000
          1.727903958959e+000 1.618384478933e+001 0.000000000000e+000
          1.343261525342e+000 1.651800241408e+001 0.000000000000e+000
          3.308120627291e+000 8.593311644828e+000 0.000000000000e+000
[...]
      <PointData Scalars="LIQUID_PRESSURE">
        <DataArray type="Float64" Name="LIQUID_PRESSURE" format="ascii">
          9.997622097962e+005 1.001103947824e+006 1.000084712860e+006 9.999291593934e+005 1.000086784222e+006 1.000295137290e+006 1.000232417899e+006 1.000869664040e+006 1.000919020529e+006 1.000894937381e+006 1.000187402513e+006 1.000958397602e+006 9.998533160974e+005 1.000729368504e+006 1.000066274354e+006 1.000383170675e+006 1.000717367636e+006 9.999326279625e+005 1.000840350054e+006 1.000914540592e+006 1.000741765557e+006 1.000791254829e+006 1.000354554600e+006 1.000783013057e+006 1.000293441805e+006 1.000295484127e+006 1.000285096413e+006 1.000290430137e+006 1.000283255495e+006 1.000293059800e+006 1.000295362712e+006 1.000293356941e+006 1.000285520590e+006 1.000290516042e+006 1.000328948010e+006 1.000311160046e+006 1.000316741141e+006 1.000328563576e+006 1.000338116670e+006 1.000307061700e+006 1.000311287841e+006 1.000328978973e+006 1.000316747852e+006 1.000328010854e+006 1.000281304651e+006 1.000269606126e+006 1.000264196692e+006 1.000277779164e+006 1.000260940823e+006 1.000279652464e+006 1.000269973245e+006 1.000280673584e+006 1.000265261889e+006 1.000277955096e+006 1.000263341068e+006 1.000248780659e+006 1.000249982147e+006 1.000262763058e+006 1.000248560041e+006 1.000342289546e+006 1.000315000316e+006 1.000316407789e+006 1.000342241751e+006 1.000317469504e+006 1.000288664648e+006 1.000314300444e+006 1.000387474417e+006 1.000288746719e+006 1.000319479387e+006 1.000300653104e+006 1.000314332340e+006 1.000319492489e+006 1.000300626585e+006 1.000246841752e+006 1.000251716000e+006 1.000241164410e+006 1.000248133251e+006 1.000250786357e+006 1.000331251608e+006 1.000296093732e+006 1.000301800743e+006 1.000331237040e+006 1.000296086514e+006 1.000597075148e+006 1.000803278003e+006 1.000671821459e+006 1.000124360368e+006 9.999787909526e+005 9.998768663100e+005 1.000430769168e+006 1.000457864013e+006 1.000242933359e+006 1.000330227847e+006 1.000947015139e+006 1.000905418976e+006 1.000336244176e+006 1.000915208148e+006 1.000607013359e+006 1.000723063758e+006 1.000360744430e+006 1.000844705817e+006 1.000803337050e+006 1.000578127277e+006 1.000863337357e+006 1.000684643088e+006 1.000543230685e+006 1.000709133609e+006 9.998825837381e+005 9.999102222856e+005 9.998601531938e+005 1.000692425700e+006 1.000636107563e+006 1.000028502105e+006 9.999721309274e+005 1.000978756850e+006 1.000297429124e+006 1.000946934937e+006 1.000663848931e+006 1.000614356549e+006 1.000703643210e+006 1.000113160309e+006 9.999305889619e+005 9.998893976838e+005 1.000589212245e+006 1.000135793790e+006 9.998601766518e+005 9.998599034462e+005 1.000592721327e+006 9.998687780816e+005 9.998688616124e+005 1.000647164836e+006 1.000163131293e+006 9.999504848745e+005 1.000241812468e+006 9.998871166292e+005 9.999893561184e+005 1.000479403886e+006 9.999248882357e+005 9.998567274324e+005 1.000529777520e+006 9.998640074701e+005 1.000060952893e+006 1.000111380020e+006 9.999136007433e+005 1.000131143529e+006 9.999520629980e+005 1.000017343619e+006 1.000133877731e+006 1.000098667110e+006 1.000234433888e+006 1.000702526141e+006 1.000682746007e+006 1.000738881657e+006 9.998918358566e+005 1.000454515587e+006 1.000957203330e+006 1.000620366324e+006 1.000592894683e+006 1.000115286303e+006 9.999097644338e+005 1.000326675873e+006 1.000128077062e+006 9.999891866078e+005 9.999788912679e+005 1.000021602310e+006 1.000534422816e+006 1.000716730979e+006 1.000670280908e+006 1.000726035599e+006 1.000937992592e+006 1.000289926539e+006 1.000844899610e+006 1.000150190868e+006 9.998850704798e+005 1.000550331558e+006 9.999314676978e+005 1.000438150589e+006 1.000648200804e+006 1.000743707032e+006 9.998480653205e+005 1.000677781919e+006 1.000624645953e+006 1.000129226397e+006 1.000895085146e+006 1.000093144412e+006 1.000258758303e+006 9.998925806066e+005 9.999515007620e+005 1.000569422237e+006 1.000939125561e+006 1.000377601823e+006 1.000758977390e+006 1.000958049270e+006 1.000947952997e+006 9.999245163399e+005 1.000938836978e+006 1.000147503083e+006 1.000767196564e+006 9.999857953932e+005 9.999353239832e+005 1.000709810671e+006 1.000902407725e+006 1.000507229726e+006 9.998738666328e+005 9.998617734809e+005 9.998637554162e+005 1.000352790052e+006 9.998925759862e+005 9.999421217520e+005 1.000013257927e+006 9.998873272420e+005 1.000307442880e+006 1.000925112938e+006 1.000422388737e+006 1.000418119058e+006 1.000646723869e+006 1.000941651329e+006 9.998828752699e+005 1.000341121639e+006 9.999448378866e+005 1.000844845207e+006 1.000200292912e+006 1.000940488057e+006 9.998910106158e+005 1.000244538002e+006 9.999083405300e+005 1.000678864894e+006 1.000833770151e+006 9.999942228914e+005 1.000877023687e+006 9.998611779734e+005 9.999129610532e+005 1.000479412799e+006 9.999567031920e+005 1.000304175302e+006 1.000175197559e+006 1.000659821039e+006 1.000641942015e+006 9.998381525097e+005 1.001015739463e+006 1.000372676238e+006 1.000373347781e+006 1.000372690297e+006 1.000840285787e+006 1.000787697675e+006 1.000820929702e+006 1.000837424911e+006 1.000494633604e+006 1.000625076020e+006 1.000547956545e+006 9.998771480177e+005 1.000314001424e+006 1.000652359526e+006 1.000667940518e+006 1.000693633968e+006 1.000713724897e+006 1.000611503761e+006 1.000707590443e+006 1.000552600945e+006 1.000707169469e+006 1.000655147972e+006 1.000730194243e+006 1.000704387189e+006 1.000260767506e+006 1.000328375869e+006 1.000456834579e+006 1.000426758436e+006 1.000428934207e+006 1.000278365767e+006 1.000305585254e+006 1.000271253567e+006 1.000489363391e+006 1.000432548311e+006 1.000442472963e+006 1.000283741953e+006 1.000318756129e+006 1.000259068425e+006 1.000398262336e+006 1.000546182749e+006 1.000400566291e+006 1.000289502797e+006 1.000259706778e+006 1.000323043265e+006 1.000387341753e+006 1.000545358000e+006 1.000395725237e+006 1.000291184743e+006 1.000352315923e+006 1.000395541206e+006 1.000378486567e+006 1.000372958812e+006 1.000353675789e+006 1.000361596615e+006 1.000395550532e+006 1.000352316780e+006 1.000378473433e+006 1.000372932505e+006 1.000353680431e+006 1.000361583629e+006 1.000288882337e+006 1.000500637726e+006 1.000317553416e+006 1.000375255336e+006 1.000283198070e+006 1.000341732696e+006 1.000500632014e+006 1.000288927480e+006 1.000317527359e+006 1.000375242501e+006 1.000283200163e+006 1.000341733971e+006 1.000477766937e+006 1.000400064759e+006 1.000261648936e+006 1.000313058769e+006 1.000400018024e+006 1.000477697128e+006 1.000261599326e+006 1.000312681342e+006 1.000455458788e+006 1.000263281305e+006 1.000544877120e+006 1.000310211439e+006 1.000499344156e+006 1.000443798727e+006 1.000263213040e+006 1.000455451920e+006 1.000545032205e+006 1.000310237799e+006 1.000499357724e+006 1.000443799315e+006 1.000266660882e+006 1.000239888821e+006 1.000317222677e+006 1.000265606747e+006 1.000240172465e+006 1.000316885369e+006 1.000387735032e+006 1.000453256176e+006 1.000372751409e+006 1.000387715451e+006 1.000453258139e+006 1.000372746345e+006 1.000265794628e+006 1.000265966602e+006 1.000460822987e+006 1.000367951780e+006 1.000277494740e+006 1.000293726597e+006 1.000460112211e+006 1.000293905490e+006 1.000407715797e+006 1.000343677322e+006 1.000359534403e+006 1.000381549625e+006 1.000407710667e+006 1.000381541315e+006 1.000314528146e+006 1.000400097693e+006 1.000315977729e+006 1.000386325044e+006 1.000497372107e+006 1.000496946187e+006 1.000386076484e+006 1.000458390623e+006 1.000257066609e+006 1.000257059071e+006 1.000402942404e+006 1.000308425745e+006 1.000402953203e+006 1.000419806319e+006 1.000391625141e+006 1.000419792921e+006 1.000398437076e+006 1.000398415675e+006 1.000348954079e+006 1.000424409658e+006 1.000424405223e+006 1.000413880378e+006 1.000308929046e+006 1.000413541389e+006 1.000348334318e+006 1.000309327617e+006 1.000329331820e+006 1.000304817231e+006 1.000360916065e+006 1.000261560459e+006 1.000357799004e+006 1.000256295546e+006 1.000088004097e+006 1.000114646247e+006 1.000427158167e+006 1.000537386699e+006 1.000237195007e+006 1.000563209415e+006 1.000965162781e+006 1.000343121591e+006 1.000905910832e+006 1.000623299266e+006 1.000274885101e+006 1.000445064068e+006 1.000493418458e+006 1.000055873259e+006 1.000211779421e+006 1.000010105279e+006 1.000634509779e+006 1.000854550777e+006 1.000199431709e+006 1.000694092147e+006 1.000811487369e+006 1.000379852011e+006 1.000730318681e+006 9.998288449444e+005 1.000494938992e+006 1.000371165014e+006 1.000952226684e+006 1.000565425585e+006 1.000153819831e+006 1.000159189048e+006 1.000411692035e+006 1.000934323603e+006 1.000100630664e+006 1.000855313858e+006 1.000459902985e+006 1.000771370470e+006 1.000058556065e+006 1.000116732516e+006 1.000126718840e+006 1.000657436755e+006 1.000081378372e+006 1.000810683995e+006 1.000443349286e+006 1.000622268557e+006 1.000798405789e+006 1.000562086736e+006 1.000257771904e+006 1.000587517049e+006 1.000238827467e+006 9.998747819564e+005 1.000458570172e+006 1.000840713816e+006 1.000401198712e+006 9.999837233272e+005 9.999756691089e+005 1.000295160127e+006 1.000355150880e+006 1.000356017379e+006 1.000652382360e+006 1.000649436423e+006 1.000827773900e+006 1.000467810441e+006 1.000603317618e+006 1.000013002957e+006 1.000879460487e+006 9.999356561612e+005 1.000444395173e+006 1.000364752030e+006 1.000450597520e+006 1.000501831982e+006 9.998924121568e+005 1.000053749702e+006 1.000820627843e+006 9.999253797087e+005 1.000003622541e+006 1.000586298582e+006 1.000573837275e+006 1.000038604085e+006 1.000081238175e+006 1.000043052750e+006 1.000338502816e+006 1.000042058262e+006 1.000532618149e+006 1.000625277578e+006 1.000578583668e+006 1.000047479240e+006 1.000244855083e+006 1.000752422118e+006 1.000849280264e+006 1.000509658446e+006 1.000142822770e+006 1.000199300067e+006 9.999564036017e+005 9.998665558624e+005 1.000591405412e+006 1.000850578465e+006 9.998184752739e+005 9.999041500237e+005 1.000589001249e+006 1.000964127456e+006 1.000467491982e+006 9.999598778747e+005 1.000660166248e+006 1.000786326886e+006 1.000452874350e+006 1.000071841085e+006 1.000879877294e+006 1.000335425925e+006 1.000423525784e+006 1.000332176751e+006 1.000342356983e+006 9.998907359392e+005 1.000044970168e+006 1.000559358853e+006 1.000893988217e+006 1.000360284779e+006 9.999224880978e+005 1.000216800926e+006 1.000615586314e+006 1.000620045995e+006 1.000896943790e+006 1.000094240347e+006 9.999640061743e+005 1.000818677720e+006 1.000773800706e+006 1.000779498669e+006 1.000430808414e+006 9.998626490200e+005 1.000454286629e+006 1.000899755444e+006 1.000343772209e+006 1.000887120189e+006 1.000892712560e+006 1.000606274178e+006 9.999403703420e+005 1.000852227185e+006 1.000853705394e+006 9.998514017732e+005 1.000045954676e+006 1.000627114523e+006 1.000378430984e+006 1.000104293738e+006 1.000185662725e+006 1.000862838486e+006 1.000371393604e+006 1.000544699185e+006 1.000891535870e+006 1.000074205844e+006 1.000298553697e+006 1.000592095007e+006 1.000154815610e+006 1.000242585611e+006 1.000707896173e+006 1.000054131461e+006 1.000171506605e+006 1.000074712749e+006 1.000902215192e+006 1.000969360009e+006 9.999385517777e+005 1.000008163986e+006 1.000131521980e+006 1.000676872969e+006 1.000356377705e+006 1.000389043955e+006 1.000936879651e+006 1.000682523573e+006 1.000369672912e+006 1.000500668120e+006 1.000842912216e+006 1.000856570584e+006 1.000554688180e+006 1.000493629865e+006 1.000082437867e+006 1.000319327557e+006 1.000024653018e+006 1.000963853675e+006 9.998152316687e+005 1.000659980181e+006 1.000464067507e+006 1.000142130788e+006 9.999803493547e+005 1.000744371618e+006 9.999554428670e+005 9.998481368997e+005 1.000293916928e+006 1.000787470012e+006 1.000314795679e+006 1.000694864340e+006 1.000472522314e+006 1.000291533313e+006 1.000841372885e+006 1.000097992346e+006 9.998122821895e+005 1.000814290315e+006 1.000229560035e+006 1.000878285094e+006 1.000020163359e+006 1.000778784098e+006 1.000371117797e+006 9.998478302982e+005 1.000794624085e+006 1.000161414850e+006 1.000863097103e+006 9.999626514735e+005 1.000384744494e+006 1.000602353293e+006 9.999347128772e+005 9.999569282184e+005 1.000662328039e+006 1.000736846806e+006 1.000644611706e+006 1.000501496538e+006 1.000176150544e+006 1.000459657916e+006 1.000855572022e+006 1.000631600867e+006 1.000037849091e+006 1.000846673746e+006 1.000214215960e+006 9.998876999973e+005 1.000782290598e+006 1.000277451550e+006 1.000431082994e+006 1.000435432601e+006 1.000458975048e+006 1.000834955919e+006 1.000404233932e+006 1.000244902157e+006 1.000694378794e+006 9.999061565304e+005 1.000644387099e+006 1.000126400977e+006 1.000686101648e+006 1.000227772580e+006 1.000578449052e+006 1.000236525189e+006 1.000182106748e+006 9.999899327484e+005 1.000406691572e+006 1.000615714388e+006 9.998745898277e+005 9.999573895489e+005 1.000518711574e+006 9.999846020575e+005 1.000304067615e+006 1.000360429319e+006 1.000427144425e+006 1.000358650929e+006 1.000423014207e+006 9.999073233739e+005 1.000205245127e+006 9.999325983970e+005 9.998749032204e+005 1.000240070259e+006 1.000411166693e+006 1.000484551830e+006 1.000410903994e+006 1.000790277519e+006 1.000320302339e+006 1.000156834764e+006 1.000435927523e+006 1.000201086964e+006 9.999024512785e+005 1.000742245895e+006 1.000898282266e+006 9.998909490508e+005 9.998188827648e+005 1.000917675332e+006 9.998369887330e+005 1.000120575032e+006 1.000689042003e+006 1.000970404632e+006 1.000682154752e+006 1.000638227612e+006 1.000894688671e+006 1.000514685213e+006 1.000728279428e+006 1.000649342862e+006 1.000590779362e+006 1.000077495407e+006 1.000239158961e+006 1.000238459506e+006 1.000687601617e+006 1.000620368820e+006 1.000102179406e+006 1.000636993365e+006 1.000621842303e+006 1.000705295898e+006 1.000835398903e+006 1.000484157549e+006 9.999748896874e+005 1.000300896606e+006 1.000255356169e+006 1.000741142060e+006 1.000861439291e+006 1.000789617267e+006 1.000171787799e+006 1.000620451915e+006 1.000644033568e+006 1.000708854193e+006 1.000513468208e+006 1.000194829938e+006 1.000379966360e+006 1.000461425990e+006 1.000572876884e+006 1.000439278722e+006 1.000375073604e+006 1.000584865990e+006 1.000381619867e+006 1.000341807655e+006 1.000365058942e+006 1.000217420722e+006 1.000325886641e+006 1.000348344207e+006 1.000486974191e+006 1.000268851046e+006 1.000425797701e+006 1.000261064938e+006 1.000471581332e+006 1.000364986224e+006 1.000481904062e+006 1.000489020237e+006 1.000482309689e+006 1.000480246717e+006 1.000343173646e+006 1.000305655240e+006 1.000181475837e+006 1.000305840305e+006 1.000183874856e+006 1.000631982405e+006 1.000352153861e+006 1.000543534937e+006 1.000357538155e+006 1.000552239278e+006 1.000404574863e+006 1.000329816326e+006 1.000413489303e+006 1.000344196808e+006 1.000340510590e+006 1.000404058499e+006 1.000412134474e+006 1.000315510033e+006 1.000425942351e+006 1.000530964249e+006 1.000422867140e+006 1.000558312843e+006 1.000224741529e+006 1.000288024115e+006 1.000218191650e+006 1.000275670073e+006 1.000516697028e+006 1.000438086624e+006 1.000517147832e+006 1.000438964400e+006 1.000402557902e+006 1.000168475325e+006 1.000619403203e+006 1.000571631367e+006 1.000416913179e+006 1.000332220974e+006 1.000170555528e+006 1.000403870455e+006 1.000614424040e+006 1.000572507278e+006 1.000417865359e+006 1.000333317451e+006 1.000290189591e+006 1.000214593635e+006 1.000408606607e+006 1.000291904163e+006 1.000209363566e+006 1.000412601171e+006 1.000653684263e+006 1.000488547909e+006 1.000563694778e+006 1.000650739516e+006 1.000466803161e+006 1.000564691222e+006 1.000068732852e+006 1.000443645657e+006 1.000085639273e+006 1.000069464297e+006 1.000475917738e+006 1.000103551413e+006 1.000724436527e+006 1.000123989277e+006 1.000694606794e+006 1.000116607263e+006 1.000252258659e+006 1.000593713562e+006 1.000252229711e+006 1.000589423445e+006 1.000307321684e+006 1.000432168106e+006 1.000388358174e+006 1.000309450671e+006 1.000431685271e+006 1.000388656385e+006 1.000266654376e+006 1.000490052221e+006 1.000266217802e+006 1.000489339002e+006 1.000515640412e+006 1.000518890965e+006 1.000451213688e+006 1.000450231380e+006 1.000151985480e+006 1.000143634738e+006 1.000128333493e+006 1.000628345234e+006 1.000082719383e+006 1.000419085150e+006 1.000608371633e+006 1.000581880446e+006 1.000157263908e+006 1.000167169881e+006 1.000181601527e+006 1.000600113347e+006 1.000252556745e+006 1.000601832345e+006 1.000250873455e+006 1.000428825311e+006 1.000125242899e+006 1.000413190372e+006 1.000117962229e+006 1.000109882881e+006 1.000678801512e+006 1.000213575501e+006 9.999168124606e+005 1.000777961489e+006 1.000743019513e+006 1.000642093271e+006 1.000575767445e+006 1.000470078975e+006 1.000618825045e+006 1.000595764890e+006 1.000554021382e+006 1.000156967907e+006 1.000370333449e+006 1.000055374390e+006 1.000430862275e+006 1.000213932602e+006 1.000080121399e+006 1.000222469693e+006 1.000157661383e+006 1.000215823390e+006 1.000766837769e+006 1.000788316221e+006 1.000225648434e+006 1.000634931565e+006 1.000215181147e+006 1.000407643147e+006 1.000649026101e+006 1.000000000000e+006 1.000000000000e+006 1.000251755738e+006 1.000672105374e+006 1.000877799130e+006 1.000147640506e+006 1.000717736313e+006 1.000722638579e+006 9.999626720884e+005 1.000835373260e+006 1.000349754249e+006 1.000783401742e+006 1.000131008701e+006 1.000079474171e+006 1.000066722645e+006 9.999252111727e+005 1.000263609693e+006 1.000146987338e+006 1.000734775315e+006 1.000867795148e+006 1.000378195243e+006 1.000110002676e+006 1.000129701824e+006 1.000747610404e+006 1.000709421782e+006 1.000680576481e+006 1.000335443548e+006 1.000333473489e+006 1.000881854545e+006 1.000344267881e+006 1.000344490033e+006 1.000202176658e+006 1.000295708356e+006 1.000729521944e+006 1.000169984748e+006 1.000051533390e+006 9.999059033643e+005 1.000241920929e+006 1.000494414404e+006 1.000158411606e+006 1.000385592492e+006 1.000071472520e+006 1.000228819819e+006 1.000146081108e+006 1.000824962614e+006 1.000603592852e+006 1.000270281054e+006 1.000789878420e+006 1.000416496223e+006 1.000798074467e+006 1.000508484103e+006 1.000405133184e+006 1.000486234466e+006 1.000817353933e+006 1.000694923696e+006 9.999209280629e+005 1.000233265150e+006 1.000855546874e+006 1.000379411858e+006 1.000378777048e+006 1.000887093257e+006 1.000580170811e+006 1.000416466364e+006 1.000178295369e+006 1.000812204802e+006 1.000695378137e+006 9.999544855358e+005 1.000304205453e+006 1.000371170830e+006 1.000585221282e+006 1.000219493628e+006 1.000146640074e+006 1.000818225151e+006 1.000612122653e+006 1.000814950216e+006 1.000844191781e+006 1.000597386348e+006 9.999073305975e+005 1.000048635259e+006 1.000245681462e+006 1.000723429358e+006 1.000819616728e+006 1.000210206993e+006 9.998993168608e+005 1.000389386307e+006 1.000115275889e+006 1.000648529099e+006 1.000923237596e+006 1.000696835806e+006 1.000689248007e+006 1.000757345479e+006 1.000724523945e+006 1.000738709228e+006 1.000832454532e+006 1.000744384552e+006 1.000291824917e+006 1.000211701742e+006 1.000140053406e+006 1.000239027033e+006 1.000653519383e+006 1.000228124909e+006 1.000398101229e+006 1.000044215662e+006 1.000668333205e+006 1.000697326512e+006 1.000834637937e+006 1.000220194733e+006 1.000213078048e+006 1.000261805552e+006 1.000344128439e+006 1.000343839273e+006 1.000431235644e+006 1.000427473644e+006 1.000805811324e+006 1.000673615107e+006 1.000213579903e+006 1.000219309532e+006 1.000227309382e+006 1.000240631689e+006 1.000660374589e+006 1.000675641699e+006 
        </DataArray>
        <DataArray type="Float64" Name="MEAN_PRESSURE" format="ascii">