<?xml version="1.0"?>
<VTKFile type="UnstructuredGrid" version="0.1" byte_order="LittleEndian">
  <UnstructuredGrid>
    <Piece NumberOfPoints="963" NumberOfCells="1758">
      <Points>
        <DataArray type="Float64" NumberOfComponents="3" format="ascii">
          1.600262034769e+002 1.257989505921e+001 0.000000000000e+000
          1.635346199106e+002 2.000000000000e+001 0.000000000000e+000
          1.554515002484e+002 2.000000000000e+001 0.000000000000e+000
          3.459306441575e+000 1.667621982453e+001 0.000000000000e+000
          3.062266634850e+000 1.705413688405e+001 0.000000000000e+000
          2.873380769063e+000 1.650527725632e+001 0.000000000000e+000
          1.514088444034e+000 1.865189448105e+001 0.000000000000e+000
          1.967902677551e+000 1.834103489750e+001 0.000000000000e+000
          2.034564522234e+000 1.890806711991e+001 0.000000000000e+000
          2.478275273162e+000 1.702762299110e+001 0.000000000000e+000
          2.952621433467e+000 1.774357373580e+001 0.000000000000e+000
          2.237893542067e+000 1.782457469610e+001 0.000000000000e+000
          3.313583922780e+000 3.274674552047e+000 0.000000000000e+000
          2.561432712787e+000 3.156040447793e+000 0.000000000000e+000
          3.047531989640e+000 2.714594415171e+000 0.000000000000e+000
          2.750804692284e+000 3.936058190693e+000 0.000000000000e+000
          2.599039179818e+000 2.451529939148e+000 0.000000000000e+000
          3.139686649742e+000 2.186924052088e+000 0.000000000000e+000
          1.919984553221e+000 3.358010194268e+000 0.000000000000e+000
          1.960900304591e+000 2.773319745251e+000 0.000000000000e+000
          1.894565400391e+000 1.733316857565e+001 0.000000000000e+000
          0.000000000000e+000 1.538461538461e+001 0.000000000000e+000
          5.816229249735e-001 1.567919247147e+001 0.000000000000e+000
          0.000000000000e+000 1.589743589743e+001 0.000000000000e+000
          9.766405669483e+001 2.000000000000e+001 0.000000000000e+000
          1.010672711393e+002 1.500000000000e+001 0.000000000000e+000
          1.029329279907e+002 2.000000000000e+001 0.000000000000e+000
          9.588503785413e+001 1.500000000000e+001 0.000000000000e+000
          1.039231647117e+002 1.000000000000e+001 0.000000000000e+000
          9.860830811271e+001 1.000000000000e+001 0.000000000000e+000
          1.010672711397e+002 5.000000000000e+000 0.000000000000e+000
          9.766405669557e+001 0.000000000000e+000 0.000000000000e+000
          1.029329279915e+002 0.000000000000e+000 0.000000000000e+000
          9.588503785449e+001 5.000000000000e+000 0.000000000000e+000
          7.892434178002e+001 2.000000000000e+001 0.000000000000e+000
          8.173808356948e+001 1.500000000000e+001 0.000000000000e+000
          8.328058896910e+001 2.000000000000e+001 0.000000000000e+000
          7.679274808893e+001 1.514423393202e+001 0.000000000000e+000
          7.970503892166e+001 1.000000000000e+001 0.000000000000e+000
          8.409930620613e+001 1.000000000000e+001 0.000000000000e+000
          8.173808356980e+001 5.000000000000e+000 0.000000000000e+000
          7.892434178065e+001 0.000000000000e+000 0.000000000000e+000
          8.328058896976e+001 0.000000000000e+000 0.000000000000e+000
          7.679274808925e+001 4.855766067979e+000 0.000000000000e+000
          1.084583939765e+002 2.000000000000e+001 0.000000000000e+000
          1.122011528880e+002 1.500000000000e+001 0.000000000000e+000
          1.142529496098e+002 2.000000000000e+001 0.000000000000e+000
          1.065018792644e+002 1.500000000000e+001 0.000000000000e+000
          1.153419838410e+002 1.000000000000e+001 0.000000000000e+000
          1.094968549120e+002 1.000000000000e+001 0.000000000000e+000
          1.122011528884e+002 5.000000000000e+000 0.000000000000e+000
          1.084583939773e+002 0.000000000000e+000 0.000000000000e+000
          1.142529496106e+002 0.000000000000e+000 0.000000000000e+000
          1.065018792648e+002 5.000000000000e+000 0.000000000000e+000
          1.181779812237e+002 1.500000000000e+001 0.000000000000e+000
          1.203297004775e+002 2.000000000000e+001 0.000000000000e+000
          1.214717707847e+002 1.000000000000e+001 0.000000000000e+000
          1.181779812242e+002 5.000000000000e+000 0.000000000000e+000
          1.203297004784e+002 0.000000000000e+000 0.000000000000e+000
          7.477039199538e+001 2.000000000000e+001 0.000000000000e+000
          7.551483469771e+001 1.000000000000e+001 0.000000000000e+000
          7.296959467356e+001 1.385646386579e+001 0.000000000000e+000
          7.477039199599e+001 0.000000000000e+000 0.000000000000e+000
          7.296959467379e+001 6.143536134207e+000 0.000000000000e+000
          6.918477198508e+001 1.366665532880e+001 0.000000000000e+000
          6.746477463053e+001 1.000000000000e+001 0.000000000000e+000
          7.151921701478e+001 1.000000000000e+001 0.000000000000e+000
          6.918477198529e+001 6.333344671202e+000 0.000000000000e+000
          9.263986346551e+001 2.000000000000e+001 0.000000000000e+000
          9.094345943471e+001 1.500000000000e+001 0.000000000000e+000
          9.354026529380e+001 1.000000000000e+001 0.000000000000e+000
          9.263986346623e+001 0.000000000000e+000 0.000000000000e+000
          9.094345943506e+001 5.000000000000e+000 0.000000000000e+000
          1.244344522558e+002 1.503312574389e+001 0.000000000000e+000
          1.267023895482e+002 2.000000000000e+001 0.000000000000e+000
          1.285510028831e+002 1.020485663255e+001 0.000000000000e+000
          1.244344522563e+002 5.033125743893e+000 0.000000000000e+000
          1.267023895491e+002 0.000000000000e+000 0.000000000000e+000
          8.623136018348e+001 1.500000000000e+001 0.000000000000e+000
          8.784898578901e+001 2.000000000000e+001 0.000000000000e+000
          8.870757443665e+001 1.000000000000e+001 0.000000000000e+000
          8.623136018382e+001 5.000000000000e+000 0.000000000000e+000
          8.784898578969e+001 0.000000000000e+000 0.000000000000e+000
          4.872472752737e+000 0.000000000000e+000 0.000000000000e+000
          4.204479229380e+000 6.412840757122e-001 0.000000000000e+000
          4.157376851380e+000 0.000000000000e+000 0.000000000000e+000
          5.192892237051e+000 7.280355562789e-001 0.000000000000e+000
          1.306630304579e+000 6.212843344151e-001 0.000000000000e+000
          1.050228457081e+000 0.000000000000e+000 0.000000000000e+000
          1.614006202528e+000 0.000000000000e+000 0.000000000000e+000
          1.266763055794e+001 1.554696422866e+001 0.000000000000e+000
          1.263589100638e+001 1.657720348306e+001 0.000000000000e+000
          1.174268578662e+001 1.633018318031e+001 0.000000000000e+000
          6.588835695415e+000 7.505681085529e+000 0.000000000000e+000
          6.456871838389e+000 6.658671683861e+000 0.000000000000e+000
          7.208099140752e+000 7.038822846307e+000 0.000000000000e+000
          4.412623338166e+000 9.138856431549e+000 0.000000000000e+000
          4.024185797397e+000 8.708923235630e+000 0.000000000000e+000
          4.601447447338e+000 8.507292699647e+000 0.000000000000e+000
          5.325995059827e-001 6.308307298123e+000 0.000000000000e+000
          0.000000000000e+000 6.666666666655e+000 0.000000000000e+000
          0.000000000000e+000 6.153846153835e+000 0.000000000000e+000
          3.986461521768e+000 8.146114708182e+000 0.000000000000e+000
          2.411603373059e+000 6.510912162016e+000 0.000000000000e+000
          1.807525763324e+000 6.938080373464e+000 0.000000000000e+000
          1.686779352680e+000 6.178928843543e+000 0.000000000000e+000
          2.510760620997e+000 7.229076682239e+000 0.000000000000e+000
          3.166991983438e+000 6.906135870389e+000 0.000000000000e+000
          3.452788915829e+000 6.276851216781e+000 0.000000000000e+000
          3.340122000742e+000 5.656365440432e+000 0.000000000000e+000
          4.047936562877e+000 5.873561587395e+000 0.000000000000e+000
          1.802463974828e+000 1.292744708026e+001 0.000000000000e+000
          1.383967161336e+000 1.330299552906e+001 0.000000000000e+000
          1.329690820161e+000 1.266495373033e+001 0.000000000000e+000
          2.267922292389e+000 1.431116835808e+001 0.000000000000e+000
          2.854613987538e+000 1.466581611369e+001 0.000000000000e+000
          2.339869278674e+000 1.493776402241e+001 0.000000000000e+000
          4.690956878046e+000 3.115726773737e+000 0.000000000000e+000
          4.014773718330e+000 2.850429494150e+000 0.000000000000e+000
          4.643493383296e+000 2.293565471327e+000 0.000000000000e+000
          5.186083944243e+000 1.661927139510e+000 0.000000000000e+000
          5.452965511439e+000 2.679881546544e+000 0.000000000000e+000
          5.360460104304e+000 3.539902157655e+000 0.000000000000e+000
          6.197986304192e+000 3.115706366113e+000 0.000000000000e+000
          7.929356606585e-001 1.634705420870e+001 0.000000000000e+000
          1.222819867503e+000 1.599517159419e+001 0.000000000000e+000
          1.215723647926e+000 1.546209040954e+001 0.000000000000e+000
          1.770601276021e+000 1.521217632514e+001 0.000000000000e+000
          1.242830150061e+000 1.493919370237e+001 0.000000000000e+000
          1.166444124506e+000 4.610115997312e+000 0.000000000000e+000
          1.851620547934e+000 4.486892013458e+000 0.000000000000e+000
          1.494152702314e+000 5.145235789232e+000 0.000000000000e+000
          1.353088107040e+000 4.090803091641e+000 0.000000000000e+000
          3.802567455935e+000 5.084697985980e+000 0.000000000000e+000
          1.014840185783e+000 5.494768572296e+000 0.000000000000e+000
          8.831064584820e-001 5.109311190608e+000 0.000000000000e+000
          1.727903958959e+000 1.618384478933e+001 0.000000000000e+000
          1.343261525342e+000 1.651800241408e+001 0.000000000000e+000
          3.308120627291e+000 8.593311644828e+000 0.000000000000e+000
[...]
      <PointData Scalars="LIQUID_PRESSURE">
        <DataArray type="Float64" Name="LIQUID_PRESSURE" format="ascii">
          9.999538289022e+005 1.000715297662e+006 1.000014658630e+006 9.999230976293e+005 1.000077201293e+006 1.000282049448e+006 1.000218390679e+006 1.000841668296e+006 1.000888445725e+006 1.000868052813e+006 1.000176886303e+006 1.000927698958e+006 9.998492196128e+005 1.000704429004e+006 1.000058317907e+006 1.000365598212e+006 1.000694387897e+006 9.999265479340e+005 1.000812772620e+006 1.000884506238e+006 1.000716310464e+006 1.000766015678e+006 1.000345511956e+006 1.000758615071e+006 1.000294108296e+006 1.000294902996e+006 1.000286098640e+006 1.000292713854e+006 1.000284374644e+006 1.000293445247e+006 1.000294800918e+006 1.000294086249e+006 1.000286283092e+006 1.000292804752e+006 1.000324194113e+006 1.000310409403e+006 1.000315011475e+006 1.000324956389e+006 1.000331905526e+006 1.000307539191e+006 1.000310530140e+006 1.000324271067e+006 1.000315004369e+006 1.000324473075e+006 1.000281040639e+006 1.000271581572e+006 1.000267811784e+006 1.000279421873e+006 1.000265013114e+006 1.000279434372e+006 1.000272000466e+006 1.000280704046e+006 1.000268100240e+006 1.000279436378e+006 1.000265899944e+006 1.000255715919e+006 1.000256407290e+006 1.000264092938e+006 1.000253411933e+006 1.000337702783e+006 1.000313494607e+006 1.000313153644e+006 1.000337531727e+006 1.000313999518e+006 1.000291310819e+006 1.000310119884e+006 1.000375424036e+006 1.000291519262e+006 1.000315026748e+006 1.000301292937e+006 1.000311110994e+006 1.000315053694e+006 1.000301280994e+006 1.000255603643e+006 1.000261956733e+006 1.000254510238e+006 1.000256901603e+006 1.000262504539e+006 1.000325474833e+006 1.000298577284e+006 1.000302540832e+006 1.000325462951e+006 1.000298583569e+006 1.000584238519e+006 1.000777622775e+006 1.000647607011e+006 1.000117614243e+006 9.999710615676e+005 9.998720746163e+005 1.000411567200e+006 1.000443243587e+006 1.000230887604e+006 1.000317476218e+006 1.000922150474e+006 1.000880077413e+006 1.000323258189e+006 1.000894241351e+006 1.000587571949e+006 1.000703016224e+006 1.000352047727e+006 1.000824900154e+006 1.000784004215e+006 1.000560569603e+006 1.000836089551e+006 1.000660463548e+006 1.000521630322e+006 1.000686954409e+006 9.998776114650e+005 9.999019174800e+005 9.998556463590e+005 1.000671362341e+006 1.000613369194e+006 1.000019268921e+006 9.999631762326e+005 1.000948574064e+006 1.000285039667e+006 1.000919557940e+006 1.000646696461e+006 1.000596678283e+006 1.000684820898e+006 1.000106532735e+006 9.999270569612e+005 9.998856228299e+005 1.000569334454e+006 1.000131549246e+006 9.998556863966e+005 9.998550888332e+005 1.000570685112e+006 9.998630407275e+005 9.998646018458e+005 1.000621171245e+006 1.000149649152e+006 9.999422848983e+005 1.000227190466e+006 9.998830514830e+005 9.999864583352e+005 1.000460010723e+006 9.999179297755e+005 9.998506360375e+005 1.000511899319e+006 9.998565098323e+005 1.000056576398e+006 1.000107256939e+006 9.999064068666e+005 1.000126111285e+006 9.999482620305e+005 1.000006212108e+006 1.000124268788e+006 1.000094459238e+006 1.000222793094e+006 1.000678085748e+006 1.000667853687e+006 1.000710889512e+006 9.998855112808e+005 1.000435433087e+006 1.000924987448e+006 1.000601265567e+006 1.000580215033e+006 1.000105575201e+006 9.999024651334e+005 1.000311205965e+006 1.000114957111e+006 9.999793041042e+005 9.999749055602e+005 1.000019808057e+006 1.000514616727e+006 1.000689985001e+006 1.000654877059e+006 1.000699012525e+006 1.000909063064e+006 1.000274052164e+006 1.000819676655e+006 1.000137670722e+006 9.998808622234e+005 1.000531117978e+006 9.999218365114e+005 1.000423211823e+006 1.000634879965e+006 1.000719758145e+006 9.998455643316e+005 1.000651796795e+006 1.000600993158e+006 1.000119749470e+006 1.000868005987e+006 1.000089322946e+006 1.000253987650e+006 9.998848048085e+005 9.999422796446e+005 1.000547967737e+006 1.000909883281e+006 1.000362089865e+006 1.000737451259e+006 1.000928654811e+006 1.000919847161e+006 9.999227534238e+005 1.000910928444e+006 1.000134676049e+006 1.000742527545e+006 9.999786238668e+005 9.999273525803e+005 1.000686986775e+006 1.000872329998e+006 1.000486101957e+006 9.998675904788e+005 9.998581429934e+005 9.998558871136e+005 1.000336454624e+006 9.998860659197e+005 9.999350469681e+005 1.000003465134e+006 9.998842424924e+005 1.000290597451e+006 1.000895758576e+006 1.000403564506e+006 1.000399619069e+006 1.000626902927e+006 1.000913034965e+006 9.998817233138e+005 1.000323352090e+006 9.999372605611e+005 1.000820540993e+006 1.000187555906e+006 1.000916778890e+006 9.998868471988e+005 1.000230225130e+006 9.999036149991e+005 1.000654847005e+006 1.000809100052e+006 9.999894767075e+005 1.000848809671e+006 9.998563220133e+005 9.999072527339e+005 1.000462547128e+006 9.999474428818e+005 1.000297891725e+006 1.000165255915e+006 1.000635411969e+006 1.000617385728e+006 9.998346167727e+005 1.000983664739e+006 1.000354826019e+006 1.000367046046e+006 1.000363749865e+006 1.000819366096e+006 1.000764335722e+006 1.000797431025e+006 1.000814457629e+006 1.000484818740e+006 1.000602795349e+006 1.000538003057e+006 9.998742043030e+005 1.000309659071e+006 1.000627194888e+006 1.000650279773e+006 1.000666838015e+006 1.000686788508e+006 1.000600309555e+006 1.000680344654e+006 1.000543507692e+006 1.000681228345e+006 1.000640530243e+006 1.000701438443e+006 1.000676503219e+006 1.000259827315e+006 1.000322739029e+006 1.000440002378e+006 1.000411905768e+006 1.000413212572e+006 1.000277029732e+006 1.000302402796e+006 1.000268603060e+006 1.000470561244e+006 1.000417077057e+006 1.000425538652e+006 1.000281788927e+006 1.000310514542e+006 1.000259340141e+006 1.000388492888e+006 1.000519869576e+006 1.000387885181e+006 1.000287362049e+006 1.000260140320e+006 1.000314489581e+006 1.000378629770e+006 1.000518980723e+006 1.000383448688e+006 1.000288899723e+006 1.000341968682e+006 1.000381983566e+006 1.000368518401e+006 1.000359001553e+006 1.000344184375e+006 1.000350490741e+006 1.000381994286e+006 1.000341973431e+006 1.000368506661e+006 1.000358978149e+006 1.000344189504e+006 1.000350478409e+006 1.000283337110e+006 1.000479593830e+006 1.000309102035e+006 1.000361952909e+006 1.000278723623e+006 1.000332561541e+006 1.000479587580e+006 1.000283377748e+006 1.000309076897e+006 1.000361940710e+006 1.000278724902e+006 1.000332562641e+006 1.000461206834e+006 1.000387331259e+006 1.000255070184e+006 1.000303241364e+006 1.000387283238e+006 1.000461127471e+006 1.000255026492e+006 1.000302868756e+006 1.000436112157e+006 1.000259838266e+006 1.000520102024e+006 1.000305825954e+006 1.000478811341e+006 1.000426404451e+006 1.000259770952e+006 1.000436105233e+006 1.000520258563e+006 1.000305850967e+006 1.000478827179e+006 1.000426406077e+006 1.000264922200e+006 1.000242409664e+006 1.000309383871e+006 1.000263914590e+006 1.000242709685e+006 1.000309071319e+006 1.000374546438e+006 1.000435807889e+006 1.000361516436e+006 1.000374532765e+006 1.000435799503e+006 1.000361502107e+006 1.000261691293e+006 1.000261839359e+006 1.000444484933e+006 1.000355483333e+006 1.000276084314e+006 1.000288668017e+006 1.000443791497e+006 1.000288851021e+006 1.000392479160e+006 1.000335111567e+006 1.000349108001e+006 1.000368160485e+006 1.000392474644e+006 1.000368153261e+006 1.000309364391e+006 1.000386045811e+006 1.000310700103e+006 1.000372008676e+006 1.000478591183e+006 1.000478112136e+006 1.000371686970e+006 1.000443405463e+006 1.000253985342e+006 1.000253975007e+006 1.000389538813e+006 1.000301083755e+006 1.000389548598e+006 1.000404985669e+006 1.000379041558e+006 1.000404973666e+006 1.000385861439e+006 1.000385852533e+006 1.000339295002e+006 1.000407430751e+006 1.000407423296e+006 1.000397785134e+006 1.000306863779e+006 1.000397614035e+006 1.000337600454e+006 1.000307895981e+006 1.000325675794e+006 1.000303701111e+006 1.000350912648e+006 1.000266573029e+006 1.000348636950e+006 1.000261926418e+006 1.000079496415e+006 1.000102941173e+006 1.000413720289e+006 1.000519651082e+006 1.000222262475e+006 1.000543676741e+006 1.000936493514e+006 1.000329381713e+006 1.000874359539e+006 1.000608182251e+006 1.000264300551e+006 1.000426490481e+006 1.000484196791e+006 1.000045764441e+006 1.000021741736e+006 1.000039228955e+006 1.000861579093e+006 1.000834769346e+006 1.000186045606e+006 1.000674572128e+006 1.000788948199e+006 1.000363509741e+006 1.000705738000e+006 9.998242194125e+005 1.000476516831e+006 1.000354272397e+006 1.000921889781e+006 1.000544199414e+006 1.000145298512e+006 1.000147334887e+006 1.000395811374e+006 1.000905097522e+006 1.000091371799e+006 1.000833956325e+006 1.000451382247e+006 1.000748483059e+006 1.000043894226e+006 1.000108483068e+006 1.000117617465e+006 1.000638665362e+006 1.000070143318e+006 1.000787950358e+006 1.000423909583e+006 1.000605259167e+006 1.000774736226e+006 1.000543006456e+006 1.000251953400e+006 1.000566417478e+006 1.000223339039e+006 9.998672890264e+005 1.000438906628e+006 1.000817333046e+006 1.000390097942e+006 9.999781848814e+005 9.999672855319e+005 1.000280480693e+006 1.000340250800e+006 1.000343268629e+006 1.000635680544e+006 1.000631298077e+006 1.000805291372e+006 1.000449279714e+006 1.000582038455e+006 1.000002083601e+006 1.000856852296e+006 9.999301232004e+005 1.000428084066e+006 1.000352250235e+006 1.000435156664e+006 1.000483021897e+006 9.998866728518e+005 1.000044591399e+006 1.000798337790e+006 9.999182337637e+005 9.999978955042e+005 1.000568482235e+006 1.000552604936e+006 1.000031994682e+006 1.000070269769e+006 1.000032212929e+006 1.000322856935e+006 1.000034030772e+006 1.000514793914e+006 1.000607845697e+006 1.000557982242e+006 1.000037290684e+006 1.000232879448e+006 1.000730289192e+006 1.000823773372e+006 1.000489935074e+006 1.000131643542e+006 1.000187046836e+006 9.999498933178e+005 9.998609221065e+005 1.000575285762e+006 1.000827839842e+006 9.998152416982e+005 9.999008521836e+005 1.000569211325e+006 1.000934952687e+006 1.000451266250e+006 9.999551314028e+005 1.000640241109e+006 1.000763265580e+006 1.000437337035e+006 1.000063588128e+006 1.000858680940e+006 1.000323355810e+006 1.000407408614e+006 1.000314292468e+006 1.000324503664e+006 9.998886185842e+005 1.000035862586e+006 1.000544479143e+006 1.000870271895e+006 1.000348114087e+006 9.999177648776e+005 1.000204353564e+006 1.000599062174e+006 1.000602676346e+006 1.000870882515e+006 1.000083091958e+006 9.999604465745e+005 1.000803328638e+006 1.000752558848e+006 1.000759103374e+006 1.000413263667e+006 9.998589168694e+005 1.000446189462e+006 1.000879208480e+006 1.000332435651e+006 1.000864734995e+006 1.000869946082e+006 1.000587133738e+006 9.999331256011e+005 1.000829486517e+006 1.000825792396e+006 9.998456656840e+005 1.000038796850e+006 1.000606541741e+006 1.000366088943e+006 1.000093604994e+006 1.000174497127e+006 1.000839549488e+006 1.000360091949e+006 1.000524347797e+006 1.000864457666e+006 1.000062122147e+006 1.000285420101e+006 1.000572448851e+006 1.000142413734e+006 1.000230523772e+006 1.000687845185e+006 1.000045886622e+006 1.000161401508e+006 1.000066236080e+006 1.000877129770e+006 1.000938274956e+006 9.999346940369e+005 1.000000700777e+006 1.000123171301e+006 1.000657216986e+006 1.000341995221e+006 1.000373708065e+006 1.000907057667e+006 1.000656849014e+006 1.000353850203e+006 1.000484241694e+006 1.000824906393e+006 1.000832653824e+006 1.000535877643e+006 1.000476881206e+006 1.000069562799e+006 1.000308960329e+006 1.000017905002e+006 1.000933503736e+006 9.998123061439e+005 1.000645533466e+006 1.000446120400e+006 1.000130506629e+006 9.999718949949e+005 1.000726319348e+006 9.999521089222e+005 9.998455277993e+005 1.000288178557e+006 1.000765954366e+006 1.000300793335e+006 1.000676962413e+006 1.000456601016e+006 1.000279569309e+006 1.000819086655e+006 1.000087320856e+006 9.998117403005e+005 1.000788451899e+006 1.000217277494e+006 1.000851290247e+006 1.000010129015e+006 1.000757906234e+006 1.000359358791e+006 9.998430008400e+005 1.000777224746e+006 1.000145060797e+006 1.000842077207e+006 9.999556333204e+005 1.000375876190e+006 1.000590461421e+006 9.999278546001e+005 9.999486399422e+005 1.000643469356e+006 1.000560222271e+006 1.000542028167e+006 1.000406757024e+006 1.000161075141e+006 1.000451250517e+006 1.000829229908e+006 1.000609669614e+006 1.000029312572e+006 1.000826287110e+006 1.000200710744e+006 9.998807075170e+005 1.000765385340e+006 1.000267863086e+006 1.000413493694e+006 1.000417228137e+006 1.000450617181e+006 1.000812415886e+006 1.000385627710e+006 1.000233270989e+006 1.000676546060e+006 9.999012659825e+005 1.000623745242e+006 1.000123034189e+006 1.000665072433e+006 1.000214557364e+006 1.000564766467e+006 1.000221691693e+006 1.000170986185e+006 1.000410764758e+006 1.000464979963e+006 1.000594939362e+006 9.998684870867e+005 9.999486253317e+005 1.000503068631e+006 9.999738671643e+005 1.000296404532e+006 1.000344228435e+006 1.000410979505e+006 1.000342749772e+006 1.000407076732e+006 9.999009062254e+005 1.000200414340e+006 9.999255659853e+005 9.998728162888e+005 1.000233442926e+006 1.000396845852e+006 1.000466881045e+006 1.000396604966e+006 1.000771828566e+006 1.000307671743e+006 1.000143391297e+006 1.000419936769e+006 1.000188427537e+006 9.998974817475e+005 1.000718581039e+006 1.000874589347e+006 9.998862986526e+005 9.998167552388e+005 1.000887874071e+006 9.998302007257e+005 1.000109632991e+006 1.000669290943e+006 1.000906268465e+006 1.000628782176e+006 1.000626297543e+006 1.000863873400e+006 1.000493194426e+006 1.000704574691e+006 1.000627830447e+006 1.000579780296e+006 1.000069732614e+006 1.000246142869e+006 1.000245750363e+006 1.000667291234e+006 1.000601314005e+006 1.000094316532e+006 1.000614246753e+006 1.000600320436e+006 1.000684183311e+006 1.000812650428e+006 1.000467366215e+006 9.999695588313e+005 1.000253172688e+006 1.000211364602e+006 1.000722494428e+006 1.000839595934e+006 1.000765564048e+006 1.000159610591e+006 1.000594449313e+006 1.000630620476e+006 1.000682188409e+006 1.000498173635e+006 1.000186633002e+006 1.000367375559e+006 1.000452043074e+006 1.000552759110e+006 1.000423607232e+006 1.000363230403e+006 1.000563939052e+006 1.000367178475e+006 1.000326738277e+006 1.000351820776e+006 1.000207561559e+006 1.000312832461e+006 1.000333663952e+006 1.000472541916e+006 1.000258871820e+006 1.000410112696e+006 1.000250485086e+006 1.000454665928e+006 1.000353378946e+006 1.000467365039e+006 1.000472727842e+006 1.000467734560e+006 1.000463876885e+006 1.000328993542e+006 1.000293506664e+006 1.000172000309e+006 1.000293451805e+006 1.000174259072e+006 1.000610825728e+006 1.000337157910e+006 1.000526870274e+006 1.000342251622e+006 1.000535395344e+006 1.000391381901e+006 1.000319028488e+006 1.000402337254e+006 1.000332834226e+006 1.000330023149e+006 1.000390822438e+006 1.000401387783e+006 1.000304804539e+006 1.000410637320e+006 1.000511919062e+006 1.000407090762e+006 1.000538622840e+006 1.000214166043e+006 1.000275760189e+006 1.000207782145e+006 1.000263300421e+006 1.000501724602e+006 1.000421869208e+006 1.000502241409e+006 1.000422939753e+006 1.000387215529e+006 1.000158977300e+006 1.000601957669e+006 1.000553358975e+006 1.000402291536e+006 1.000315355329e+006 1.000160994336e+006 1.000388477870e+006 1.000597111877e+006 1.000554236944e+006 1.000403136154e+006 1.000316259387e+006 1.000280304189e+006 1.000202367415e+006 1.000393777046e+006 1.000282291857e+006 1.000197688635e+006 1.000397819779e+006 1.000633115011e+006 1.000472900788e+006 1.000545769543e+006 1.000630889646e+006 1.000451278170e+006 1.000546857145e+006 1.000060638550e+006 1.000429473457e+006 1.000077295854e+006 1.000061238328e+006 1.000459701691e+006 1.000094644262e+006 1.000706317139e+006 1.000117033802e+006 1.000677003537e+006 1.000107544155e+006 1.000241522152e+006 1.000573849964e+006 1.000241399363e+006 1.000570022891e+006 1.000298409184e+006 1.000414760055e+006 1.000373477183e+006 1.000300490233e+006 1.000414232245e+006 1.000373795071e+006 1.000257455529e+006 1.000473718113e+006 1.000257060256e+006 1.000472971720e+006 1.000496863686e+006 1.000499835281e+006 1.000435312025e+006 1.000434326098e+006 1.000145097126e+006 1.000137364889e+006 1.000120667398e+006 1.000610129232e+006 1.000072730087e+006 1.000410036587e+006 1.000591757983e+006 1.000565429247e+006 1.000146384707e+006 1.000155830592e+006 1.000168799624e+006 1.000581772015e+006 1.000241861950e+006 1.000583713062e+006 1.000240428275e+006 1.000413245646e+006 1.000116196015e+006 1.000398209687e+006 1.000109421371e+006 1.000099103163e+006 1.000655782167e+006 1.000200992651e+006 9.999085182949e+005 1.000760711559e+006 1.000721104262e+006 1.000621477694e+006 1.000557548542e+006 1.000453502801e+006 1.000601203423e+006 1.000579066687e+006 1.000537905364e+006 1.000146370679e+006 1.000354677787e+006 1.000049920546e+006 1.000417317985e+006 1.000203307313e+006 1.000070299774e+006 1.000211303608e+006 1.000143941686e+006 1.000207849966e+006 1.000745168460e+006 1.000767236442e+006 1.000213926507e+006 1.000613689378e+006 1.000203444689e+006 1.000399287207e+006 1.000628780382e+006 1.000000000000e+006 1.000000000000e+006 1.000215196082e+006 1.000655109205e+006 1.000852179117e+006 1.000134488374e+006 1.000696907049e+006 1.000700805392e+006 9.999547953470e+005 1.000814485433e+006 1.000337196788e+006 1.000761893952e+006 1.000119326036e+006 1.000070125258e+006 1.000058536809e+006 9.999165511620e+005 1.000253298002e+006 1.000133409439e+006 1.000715003425e+006 1.000845880884e+006 1.000360794198e+006 1.000100385105e+006 1.000118739406e+006 1.000729459138e+006 1.000689156865e+006 1.000662231450e+006 1.000329691518e+006 1.000327923910e+006 1.000856155808e+006 1.000331384216e+006 1.000331590599e+006 1.000185887340e+006 1.000285554929e+006 1.000707399821e+006 1.000159286616e+006 1.000041170670e+006 9.999020268038e+005 1.000227450674e+006 1.000479207553e+006 1.000147244605e+006 1.000369699251e+006 1.000062747698e+006 1.000233998092e+006 1.000154168387e+006 1.000801033628e+006 1.000585896982e+006 1.000258547765e+006 1.000767677670e+006 1.000409847706e+006 1.000774462131e+006 1.000492845672e+006 1.000390394616e+006 1.000424105484e+006 1.000793659280e+006 1.000670743435e+006 9.999121387747e+005 1.000223753377e+006 1.000832686658e+006 1.000365374294e+006 1.000364848677e+006 1.000865143313e+006 1.000569421275e+006 1.000400545750e+006 1.000163033548e+006 1.000792931953e+006 1.000680421151e+006 9.999471990568e+005 1.000291024307e+006 1.000353823196e+006 1.000570806516e+006 1.000207265167e+006 1.000138591047e+006 1.000794755517e+006 1.000596456376e+006 1.000790234120e+006 1.000820666555e+006 1.000578952463e+006 9.999018121733e+005 1.000039961372e+006 1.000253025964e+006 1.000705145160e+006 1.000613804823e+006 1.000197718969e+006 9.998942953101e+005 1.000374923750e+006 1.000106182655e+006 1.000632896344e+006 1.000901609079e+006 1.000678301779e+006 1.000674443132e+006 1.000732503539e+006 1.000700899439e+006 1.000713586455e+006 1.000809341768e+006 1.000723950176e+006 1.000255432719e+006 1.000241231535e+006 1.000146410666e+006 1.000256047194e+006 1.000638672476e+006 1.000238031214e+006 1.000243368852e+006 1.000040378657e+006 1.000655386875e+006 1.000671379363e+006 1.000813063652e+006 1.000221880101e+006 1.000201407723e+006 1.000250217905e+006 1.000333064532e+006 1.000332798533e+006 1.000413689342e+006 1.000410016041e+006 1.000781494269e+006 1.000659836570e+006 1.000206049641e+006 1.000211837245e+006 1.000222054606e+006 1.000234903286e+006 1.000646336864e+006 1.000651415966e+006 
        </DataArray>
        <DataArray type="Float64" Name="MEAN_PRESSURE" format="ascii">