<?xml version="1.0"?>
<VTKFile type="UnstructuredGrid" version="0.1" byte_order="LittleEndian">
  <UnstructuredGrid>
    <Piece NumberOfPoints="963" NumberOfCells="1758">
      <Points>
        <DataArray type="Float64" NumberOfComponents="3" format="ascii">
          1.600262034769e+002 1.257989505921e+001 0.000000000000e+000
          1.635346199106e+002 2.000000000000e+001 0.000000000000e+000
          1.554515002484e+002 2.000000000000e+001 0.000000000000e+000
          3.459306441575e+000 1.667621982453e+001 0.000000000000e+000
          3.062266634850e+000 1.705413688405e+001 0.000000000000e+000
          2.873380769063e+000 1.650527725632e+001 0.000000000000e+000
          1.514088444034e+000 1.865189448105e+001 0.000000000000e+000
          1.967902677551e+000 1.834103489750e+001 0.000000000000e+000
          2.034564522234e+000 1.890806711991e+001 0.000000000000e+000
          2.478275273162e+000 1.702762299110e+001 0.000000000000e+000
          2.952621433467e+000 1.774357373580e+001 0.000000000000e+000
          2.237893542067e+000 1.782457469610e+001 0.000000000000e+000
          3.313583922780e+000 3.274674552047e+000 0.000000000000e+000
          2.561432712787e+000 3.156040447793e+000 0.000000000000e+000
          3.047531989640e+000 2.714594415171e+000 0.000000000000e+000
          2.750804692284e+000 3.936058190693e+000 0.000000000000e+000
          2.599039179818e+000 2.451529939148e+000 0.000000000000e+000
          3.139686649742e+000 2.186924052088e+000 0.000000000000e+000
          1.919984553221e+000 3.358010194268e+000 0.000000000000e+000
          1.960900304591e+000 2.773319745251e+000 0.000000000000e+000
          1.894565400391e+000 1.733316857565e+001 0.000000000000e+000
          0.000000000000e+000 1.538461538461e+001 0.000000000000e+000
          5.816229249735e-001 1.567919247147e+001 0.000000000000e+000
          0.000000000000e+000 1.589743589743e+001 0.000000000000e+000
          9.766405669483e+001 2.000000000000e+001 0.000000000000e+000
          1.010672711393e+002 1.500000000000e+001 0.000000000000e+000
          1.029329279907e+002 2.000000000000e+001 0.000000000000e+000
          9.588503785413e+001 1.500000000000e+001 0.000000000000e+000
          1.039231647117e+002 1.000000000000e+001 0.000000000000e+000
          9.860830811271e+001 1.000000000000e+001 0.000000000000e+000
          1.010672711397e+002 5.000000000000e+000 0.000000000000e+000
          9.766405669557e+001 0.000000000000e+000 0.000000000000e+000
          1.029329279915e+002 0.000000000000e+000 0.000000000000e+000
          9.588503785449e+001 5.000000000000e+000 0.000000000000e+000
          7.892434178002e+001 2.000000000000e+001 0.000000000000e+000
          8.173808356948e+001 1.500000000000e+001 0.000000000000e+000
          8.328058896910e+001 2.000000000000e+001 0.000000000000e+000
          7.679274808893e+001 1.514423393202e+001 0.000000000000e+000
          7.970503892166e+001 1.000000000000e+001 0.000000000000e+000
          8.409930620613e+001 1.000000000000e+001 0.000000000000e+000
          8.173808356980e+001 5.000000000000e+000 0.000000000000e+000
          7.892434178065e+001 0.000000000000e+000 0.000000000000e+000
          8.328058896976e+001 0.000000000000e+000 0.000000000000e+000
          7.679274808925e+001 4.855766067979e+000 0.000000000000e+000
          1.084583939765e+002 2.000000000000e+001 0.000000000000e+000
          1.122011528880e+002 1.500000000000e+001 0.000000000000e+000
          1.142529496098e+002 2.000000000000e+001 0.000000000000e+000
          1.065018792644e+002 1.500000000000e+001 0.000000000000e+000
          1.153419838410e+002 1.000000000000e+001 0.000000000000e+000
          1.094968549120e+002 1.000000000000e+001 0.000000000000e+000
          1.122011528884e+002 5.000000000000e+000 0.000000000000e+000
          1.084583939773e+002 0.000000000000e+000 0.000000000000e+000
          1.142529496106e+002 0.000000000000e+000 0.000000000000e+000
          1.065018792648e+002 5.000000000000e+000 0.000000000000e+000
          1.181779812237e+002 1.500000000000e+001 0.000000000000e+000
          1.203297004775e+002 2.000000000000e+001 0.000000000000e+000
          1.214717707847e+002 1.000000000000e+001 0.000000000000e+000
          1.181779812242e+002 5.000000000000e+000 0.000000000000e+000
          1.203297004784e+002 0.000000000000e+000 0.000000000000e+000
          7.477039199538e+001 2.000000000000e+001 0.000000000000e+000
          7.551483469771e+001 1.000000000000e+001 0.000000000000e+000
          7.296959467356e+001 1.385646386579e+001 0.000000000000e+000
          7.477039199599e+001 0.000000000000e+000 0.000000000000e+000
          7.296959467379e+001 6.143536134207e+000 0.000000000000e+000
          6.918477198508e+001 1.366665532880e+001 0.000000000000e+000
          6.746477463053e+001 1.000000000000e+001 0.000000000000e+000
          7.151921701478e+001 1.000000000000e+001 0.000000000000e+000
          6.918477198529e+001 6.333344671202e+000 0.000000000000e+000
          9.263986346551e+001 2.000000000000e+001 0.000000000000e+000
          9.094345943471e+001 1.500000000000e+001 0.000000000000e+000
          9.354026529380e+001 1.000000000000e+001 0.000000000000e+000
          9.263986346623e+001 0.000000000000e+000 0.000000000000e+000
          9.094345943506e+001 5.000000000000e+000 0.000000000000e+000
          1.244344522558e+002 1.503312574389e+001 0.000000000000e+000
          1.267023895482e+002 2.000000000000e+001 0.000000000000e+000
          1.285510028831e+002 1.020485663255e+001 0.000000000000e+000
          1.244344522563e+002 5.033125743893e+000 0.000000000000e+000
          1.267023895491e+002 0.000000000000e+000 0.000000000000e+000
          8.623136018348e+001 1.500000000000e+001 0.000000000000e+000
          8.784898578901e+001 2.000000000000e+001 0.000000000000e+000
          8.870757443665e+001 1.000000000000e+001 0.000000000000e+000
          8.623136018382e+001 5.000000000000e+000 0.000000000000e+000
          8.784898578969e+001 0.000000000000e+000 0.000000000000e+000
          4.872472752737e+000 0.000000000000e+000 0.000000000000e+000
          4.204479229380e+000 6.412840757122e-001 0.000000000000e+000
          4.157376851380e+000 0.000000000000e+000 0.000000000000e+000
          5.192892237051e+000 7.280355562789e-001 0.000000000000e+000
          1.306630304579e+000 6.212843344151e-001 0.000000000000e+000
          1.050228457081e+000 0.000000000000e+000 0.000000000000e+000
          1.614006202528e+000 0.000000000000e+000 0.000000000000e+000
          1.266763055794e+001 1.554696422866e+001 0.000000000000e+000
          1.263589100638e+001 1.657720348306e+001 0.000000000000e+000
          1.174268578662e+001 1.633018318031e+001 0.000000000000e+000
          6.588835695415e+000 7.505681085529e+000 0.000000000000e+000
          6.456871838389e+000 6.658671683861e+000 0.000000000000e+000
          7.208099140752e+000 7.038822846307e+000 0.000000000000e+000
          4.412623338166e+000 9.138856431549e+000 0.000000000000e+000
          4.024185797397e+000 8.708923235630e+000 0.000000000000e+000
          4.601447447338e+000 8.507292699647e+000 0.000000000000e+000
          5.325995059827e-001 6.308307298123e+000 0.000000000000e+000
          0.000000000000e+000 6.666666666655e+000 0.000000000000e+000
          0.000000000000e+000 6.153846153835e+000 0.000000000000e+000
          3.986461521768e+000 8.146114708182e+000 0.000000000000e+000
          2.411603373059e+000 6.510912162016e+000 0.000000000000e+000
          1.807525763324e+000 6.938080373464e+000 0.000000000000e+000
          1.686779352680e+000 6.178928843543e+000 0.000000000000e+000
          2.510760620997e+000 7.229076682239e+000 0.000000000000e+000
          3.166991983438e+000 6.906135870389e+000 0.000000000000e+000
          3.452788915829e+000 6.276851216781e+000 0.000000000000e+000
          3.340122000742e+000 5.656365440432e+000 0.000000000000e+000
          4.047936562877e+000 5.873561587395e+000 0.000000000000e+000
          1.802463974828e+000 1.292744708026e+001 0.000000000000e+000
          1.383967161336e+000 1.330299552906e+001 0.000000000000e+000
          1.329690820161e+000 1.266495373033e+001 0.000000000000e+000
          2.267922292389e+000 1.431116835808e+001 0.000000000000e+000
          2.854613987538e+000 1.466581611369e+001 0.000000000000e+000
          2.339869278674e+000 1.493776402241e+001 0.000000000000e+000
          4.690956878046e+000 3.115726773737e+000 0.000000000000e+000
          4.014773718330e+000 2.850429494150e+000 0.000000000000e+000
          4.643493383296e+000 2.293565471327e+000 0.000000000000e+000
          5.186083944243e+000 1.661927139510e+000 0.000000000000e+000
          5.452965511439e+000 2.679881546544e+000 0.000000000000e+000
          5.360460104304e+000 3.539902157655e+000 0.000000000000e+000
          6.197986304192e+000 3.115706366113e+000 0.000000000000e+000
          7.929356606585e-001 1.634705420870e+001 0.000000000000e+000
          1.222819867503e+000 1.599517159419e+001 0.000000000000e+000
          1.215723647926e+000 1.546209040954e+001 0.000000000000e+000
          1.770601276021e+000 1.521217632514e+001 0.000000000000e+000
          1.242830150061e+000 1.493919370237e+001 0.000000000000e+000
          1.166444124506e+000 4.610115997312e+000 0.000000000000e+000
          1.851620547934e+000 4.486892013458e+000 0.000000000000e+000
          1.494152702314e+000 5.145235789232e+000 0.000000000000e+000
          1.353088107040e+000 4.090803091641e+000 0.000000000000e+000
          3.802567455935e+000 5.084697985980e+000 0.000000000000e+000
          1.014840185783e+000 5.494768572296e+000 0.000000000000e+000
          8.831064584820e-001 5.109311190608e+000 0.000000000000e+000
          1.727903958959e+000 1.618384478933e+001 0.000000000000e+000
          1.343261525342e+000 1.651800241408e+001 0.000000000000e+000
          3.308120627291e+000 8.593311644828e+000 0.000000000000e+000
[...]
      <PointData Scalars="LIQUID_PRESSURE">
        <DataArray type="Float64" Name="LIQUID_PRESSURE" format="ascii">
          1.002211563556e+006 1.002588708716e+006 1.002393725876e+006 1.000216354466e+006 1.000366851267e+006 1.000568272729e+006 1.000503554586e+006 1.001113959392e+006 1.001158327764e+006 1.001141352857e+006 1.000465548101e+006 1.001197523360e+006 1.000144156984e+006 1.000979593034e+006 1.000349512274e+006 1.000647679572e+006 1.000971315738e+006 1.000219575127e+006 1.001085447402e+006 1.001154944564e+006 1.000990995660e+006 1.001040598365e+006 1.000634719648e+006 1.001033965776e+006 1.001348506691e+006 1.001432416503e+006 1.001474108879e+006 1.001307079987e+006 1.001499657821e+006 1.001370365822e+006 1.001432570839e+006 1.001348625264e+006 1.001474744939e+006 1.001307212609e+006 1.001027263033e+006 1.001057933151e+006 1.001085728948e+006 1.000999610361e+006 1.001044959840e+006 1.001093096957e+006 1.001058044568e+006 1.001027371532e+006 1.001085716127e+006 1.000999193524e+006 1.001624752263e+006 1.001727906180e+006 1.001785255431e+006 1.001567537059e+006 1.001816513868e+006 1.001654441092e+006 1.001729568517e+006 1.001625572173e+006 1.001789015252e+006 1.001568171281e+006 1.001893081610e+006 1.001937341917e+006 1.001964620731e+006 1.001896253756e+006 1.001941591746e+006 1.000985343098e+006 1.000973402861e+006 1.000940156925e+006 1.000985083854e+006 1.000940824719e+006 1.000880193627e+006 1.000875833648e+006 1.000977799266e+006 1.000880481994e+006 1.001254247799e+006 1.001210018562e+006 1.001270101868e+006 1.001254323175e+006 1.001210041653e+006 1.002007137412e+006 1.002024339845e+006 1.002092038278e+006 1.002034791149e+006 1.002084724848e+006 1.001142150605e+006 1.001150072064e+006 1.001168580313e+006 1.001142150896e+006 1.001150108661e+006 1.000870982550e+006 1.001052794351e+006 1.000924192202e+006 1.000410380226e+006 1.000261999435e+006 1.000165536690e+006 1.000691999102e+006 1.000734895218e+006 1.000525163088e+006 1.000609851881e+006 1.001198800314e+006 1.001156288079e+006 1.000611408363e+006 1.001173368306e+006 1.000868425890e+006 1.000983225355e+006 1.000641554500e+006 1.001104195637e+006 1.001063833574e+006 1.000843122157e+006 1.001109061761e+006 1.000936316968e+006 1.000799877266e+006 1.000964651207e+006 1.000171651739e+006 1.000193165720e+006 1.000150183088e+006 1.000950656787e+006 1.000890578159e+006 1.000308838164e+006 1.000253001904e+006 1.001218819965e+006 1.000571872837e+006 1.001192383190e+006 1.000929471762e+006 1.000879085031e+006 1.000966160073e+006 1.000399397535e+006 1.000223091295e+006 1.000181460783e+006 1.000850693218e+006 1.000425178774e+006 1.000149551209e+006 1.000148709614e+006 1.000848519904e+006 1.000155834621e+006 1.000158592304e+006 1.000895526770e+006 1.000435422281e+006 1.000232918129e+006 1.000512643680e+006 1.000177135794e+006 1.000281421292e+006 1.000740295546e+006 1.000209640541e+006 1.000143860338e+006 1.000793672895e+006 1.000148326951e+006 1.000350198200e+006 1.000401019425e+006 1.000197813706e+006 1.000419036180e+006 1.000242478201e+006 1.000294174511e+006 1.000413784660e+006 1.000388158708e+006 1.000510390532e+006 1.000953722479e+006 1.000951741454e+006 1.000982924575e+006 1.000177741655e+006 1.000716052994e+006 1.001193469883e+006 1.000882396158e+006 1.000867093903e+006 1.000395733740e+006 1.000195386971e+006 1.000596616945e+006 1.000401043381e+006 1.000268362382e+006 1.000268886268e+006 1.000315714774e+006 1.000794488159e+006 1.000963368602e+006 1.000938323276e+006 1.000972068289e+006 1.001180502634e+006 1.000558313748e+006 1.001095163100e+006 1.000424299509e+006 1.000174891401e+006 1.000811623915e+006 1.000211627781e+006 1.000707817992e+006 1.000920178839e+006 1.000995586444e+006 1.000141140750e+006 1.000926020636e+006 1.000877329277e+006 1.000409380312e+006 1.001141048498e+006 1.000383318389e+006 1.000547069577e+006 1.000176325275e+006 1.000232611354e+006 1.000826387588e+006 1.001181006626e+006 1.000647502549e+006 1.001017364435e+006 1.001199636211e+006 1.001192015539e+006 1.000218868819e+006 1.001183242492e+006 1.000420945426e+006 1.001017899016e+006 1.000270918194e+006 1.000218963977e+006 1.000964767245e+006 1.001142737089e+006 1.000764816219e+006 1.000159849210e+006 1.000152577539e+006 1.000146742037e+006 1.000619531511e+006 1.000178779859e+006 1.000227086578e+006 1.000292557306e+006 1.000179223983e+006 1.000573225707e+006 1.001166804895e+006 1.000935571481e+006 1.000931936389e+006 1.000906751036e+006 1.001184671448e+006 1.000178413034e+006 1.000608269311e+006 1.000231032543e+006 1.001099281727e+006 1.000474716213e+006 1.001193486771e+006 1.000180935307e+006 1.000515178505e+006 1.000197098086e+006 1.000930901325e+006 1.001084437855e+006 1.000282755399e+006 1.001120967152e+006 1.000149851085e+006 1.000200042120e+006 1.000745228170e+006 1.000237799166e+006 1.000589639101e+006 1.000454885024e+006 1.000911097539e+006 1.000892941604e+006 1.000130123210e+006 1.001252212563e+006 1.000636470251e+006 1.000658718281e+006 1.000653015027e+006 1.001097810523e+006 1.001040564091e+006 1.001073507086e+006 1.001090868336e+006 1.000773350579e+006 1.000880018423e+006 1.000826342207e+006 1.000169286690e+006 1.000603075180e+006 1.000901765690e+006 1.000931750967e+006 1.000940073228e+006 1.000959898022e+006 1.000887463357e+006 1.000953217875e+006 1.000832595199e+006 1.000955238876e+006 1.000924674387e+006 1.000972836622e+006 1.000948810338e+006 1.000759606157e+006 1.000841658932e+006 1.000955361069e+006 1.000888115173e+006 1.000930845448e+006 1.000777481532e+006 1.000823434204e+006 1.000766937239e+006 1.000984025073e+006 1.000892776468e+006 1.000942072340e+006 1.000781702976e+006 1.000755863581e+006 1.000724813520e+006 1.000853984142e+006 1.000940603095e+006 1.000852219208e+006 1.000738511956e+006 1.000725724209e+006 1.000759534707e+006 1.000845078867e+006 1.000939665515e+006 1.000848145016e+006 1.000739914922e+006 1.000691356316e+006 1.000733495391e+006 1.000726720107e+006 1.000702054116e+006 1.000703363306e+006 1.000699513616e+006 1.000733507041e+006 1.000691363953e+006 1.000726709241e+006 1.000702033820e+006 1.000703368844e+006 1.000699502484e+006 1.000655735227e+006 1.000844338913e+006 1.000690186990e+006 1.000723162794e+006 1.000663704311e+006 1.000701987225e+006 1.000844332363e+006 1.000655771972e+006 1.000690162820e+006 1.000723151158e+006 1.000663704805e+006 1.000701988214e+006 1.000784441668e+006 1.000717121581e+006 1.000593553731e+006 1.000630572959e+006 1.000717074242e+006 1.000784358237e+006 1.000593517398e+006 1.000630206695e+006 1.000820263524e+006 1.000666826878e+006 1.000913755666e+006 1.000697833956e+006 1.000877041650e+006 1.000812737334e+006 1.000666758887e+006 1.000820255799e+006 1.000913911599e+006 1.000697857434e+006 1.000877058046e+006 1.000812739310e+006 1.000696400303e+006 1.000670453595e+006 1.000736209999e+006 1.000695446025e+006 1.000670770418e+006 1.000735926180e+006 1.000713804106e+006 1.000766936158e+006 1.000702601043e+006 1.000713796271e+006 1.000766919756e+006 1.000702579421e+006 1.000602392709e+006 1.000602514609e+006 1.000870483572e+006 1.000773506501e+006 1.000722579964e+006 1.000707336272e+006 1.000869812510e+006 1.000707522440e+006 1.000750196216e+006 1.000692732997e+006 1.000714693111e+006 1.000718411328e+006 1.000750192262e+006 1.000718405348e+006 1.000766299718e+006 1.000843296582e+006 1.000767525438e+006 1.000699138085e+006 1.000800097101e+006 1.000799581426e+006 1.000698756945e+006 1.000842404380e+006 1.000658835205e+006 1.000658821803e+006 1.000759309835e+006 1.000680515791e+006 1.000759318712e+006 1.000785463296e+006 1.000766118328e+006 1.000785452462e+006 1.000721511453e+006 1.000721515233e+006 1.000687537816e+006 1.000746305913e+006 1.000746296467e+006 1.000868822913e+006 1.000799004479e+006 1.000868786463e+006 1.000676554161e+006 1.000822074212e+006 1.000854760265e+006 1.000818187044e+006 1.000906801395e+006 1.000829233898e+006 1.000905177419e+006 1.000825105792e+006 1.000372063352e+006 1.000393399063e+006 1.000701261147e+006 1.000804438562e+006 1.000506902664e+006 1.000823922359e+006 1.001208169944e+006 1.000614963643e+006 1.001143384104e+006 1.000892836612e+006 1.000553419208e+006 1.000707431866e+006 1.000773148182e+006 1.000336141062e+006 1.002805177909e+006 1.000665274600e+006 1.000887632390e+006 1.001115806035e+006 1.000474171961e+006 1.000956323809e+006 1.001067800782e+006 1.000647411546e+006 1.000981274857e+006 1.000117890832e+006 1.000758402912e+006 1.000636870338e+006 1.001192055806e+006 1.000822757303e+006 1.000437762108e+006 1.000436915860e+006 1.000682375995e+006 1.001176330250e+006 1.000381243860e+006 1.001111884425e+006 1.000741011138e+006 1.001025108384e+006 1.000331760644e+006 1.000401217243e+006 1.000409525444e+006 1.000921107213e+006 1.000360784938e+006 1.001066583140e+006 1.000707389827e+006 1.000891082254e+006 1.001054215131e+006 1.000826613669e+006 1.000544134677e+006 1.000845783117e+006 1.000508009618e+006 1.000159245648e+006 1.000722134677e+006 1.001097050503e+006 1.000681563324e+006 1.000275587109e+006 1.000258378309e+006 1.000565340025e+006 1.000630421508e+006 1.000635582384e+006 1.000923179633e+006 1.000914409588e+006 1.001084203071e+006 1.000737440316e+006 1.000866173990e+006 1.000296876817e+006 1.001134648045e+006 1.000224541404e+006 1.000712712833e+006 1.000647395838e+006 1.000727377207e+006 1.000763745623e+006 1.000179425512e+006 1.000336662078e+006 1.001077414305e+006 1.000212591480e+006 1.000293066149e+006 1.000853125527e+006 1.000834313786e+006 1.000325408456e+006 1.000363189423e+006 1.000324764962e+006 1.000612448554e+006 1.000331681494e+006 1.000803745981e+006 1.000893299482e+006 1.000844774640e+006 1.000332977346e+006 1.000526402910e+006 1.001015959951e+006 1.001098990604e+006 1.000770601318e+006 1.000424310331e+006 1.000477975900e+006 1.000243172197e+006 1.000154419936e+006 1.000859109693e+006 1.001105531791e+006 1.000110213177e+006 1.000195573984e+006 1.000849198288e+006 1.001206155037e+006 1.000735979752e+006 1.000250265557e+006 1.000922981727e+006 1.001043463046e+006 1.000724824695e+006 1.000357036833e+006 1.001140188501e+006 1.000614042899e+006 1.000693649371e+006 1.000597573193e+006 1.000607769222e+006 1.000186002671e+006 1.000328415102e+006 1.000829439105e+006 1.001147954534e+006 1.000635746729e+006 1.000212688626e+006 1.000495934824e+006 1.000887323297e+006 1.000889699410e+006 1.001145537235e+006 1.000371686638e+006 1.000256282983e+006 1.001089947673e+006 1.001031623466e+006 1.001043524574e+006 1.000700309594e+006 1.000153290337e+006 1.000736194160e+006 1.001158794071e+006 1.000620727590e+006 1.001142759483e+006 1.001148465890e+006 1.000868329103e+006 1.000227563387e+006 1.001109650994e+006 1.001098188115e+006 1.000139199625e+006 1.000330660789e+006 1.000886337853e+006 1.000654634317e+006 1.000384333686e+006 1.000464398960e+006 1.001117556264e+006 1.000648464849e+006 1.000803730071e+006 1.001137601013e+006 1.000353696531e+006 1.000575207722e+006 1.000855945337e+006 1.000433859349e+006 1.000519124289e+006 1.000972796647e+006 1.000343360533e+006 1.000456701108e+006 1.000358084521e+006 1.001152603742e+006 1.001207729041e+006 1.000231740586e+006 1.000296388016e+006 1.000418408146e+006 1.000942329237e+006 1.000630621505e+006 1.000661480878e+006 1.001177688932e+006 1.000931389911e+006 1.000637495394e+006 1.000772204041e+006 1.001111234702e+006 1.001110188851e+006 1.000818240427e+006 1.000761063294e+006 1.000361126527e+006 1.000601216934e+006 1.000314070540e+006 1.001203571031e+006 1.000107557621e+006 1.000929868729e+006 1.000728429744e+006 1.000418675354e+006 1.000266998622e+006 1.001010828005e+006 1.000248306057e+006 1.000141035831e+006 1.000580380042e+006 1.001047223013e+006 1.000589805250e+006 1.000961749102e+006 1.000740171227e+006 1.000568696786e+006 1.001097132490e+006 1.000380410364e+006 1.000110658593e+006 1.001062821246e+006 1.000504342361e+006 1.001124453236e+006 1.000302051380e+006 1.001041968880e+006 1.000646765622e+006 1.000137267930e+006 1.001062154409e+006 1.000434568681e+006 1.001125652571e+006 1.000247715566e+006 1.000665230447e+006 1.000877045578e+006 1.000224062732e+006 1.000244098327e+006 1.000929163623e+006 1.001334123198e+006 1.000830350367e+006 1.000741556171e+006 1.000448504433e+006 1.000741000639e+006 1.001103017560e+006 1.000887613267e+006 1.000320016636e+006 1.001105995362e+006 1.000489394523e+006 1.000173164440e+006 1.001048267916e+006 1.000557838072e+006 1.000994645819e+006 1.000997864614e+006 1.000740405428e+006 1.001089217496e+006 1.000666583462e+006 1.000521505873e+006 1.000961493385e+006 1.000196286241e+006 1.000906075524e+006 1.000417495005e+006 1.000945441400e+006 1.000500482550e+006 1.000854817281e+006 1.000511240146e+006 1.000461113555e+006 9.976803020688e+005 9.991873489936e+005 1.000874531895e+006 1.000162435558e+006 1.000239909758e+006 1.000788140199e+006 1.000265153827e+006 1.000586910336e+006 1.000663934149e+006 1.000731027304e+006 1.000662736576e+006 1.000727356386e+006 1.000193851358e+006 1.000493480088e+006 1.000220049415e+006 1.000168765584e+006 1.000563312711e+006 1.000721727320e+006 1.000791999061e+006 1.000721496807e+006 1.001057926431e+006 1.000600162272e+006 1.000429080706e+006 1.000708218022e+006 1.000475656936e+006 1.000191569354e+006 1.000995519349e+006 1.001151309716e+006 1.000179882023e+006 1.000112649403e+006 1.001158542980e+006 1.000122001799e+006 1.000404911289e+006 1.000954779739e+006 1.000699966924e+006 1.000443192972e+006 1.000912864443e+006 1.001133629230e+006 1.000772335379e+006 1.000980884545e+006 1.000909285363e+006 1.000867161748e+006 1.000363360179e+006 1.000857036716e+006 1.000856873550e+006 1.000954385450e+006 1.000883310278e+006 1.000394766514e+006 1.000901883887e+006 1.000889868593e+006 1.000968161626e+006 1.001090300702e+006 1.000750644227e+006 1.000269551485e+006 1.000381668015e+006 1.000348097425e+006 1.001010822838e+006 1.001117099311e+006 1.001041000618e+006 1.000452944747e+006 1.000868351690e+006 1.000915806288e+006 1.000955569123e+006 1.000787776585e+006 1.000508220022e+006 1.000687343555e+006 1.000775442148e+006 1.000860836849e+006 1.000736698845e+006 1.000683870833e+006 1.000871305269e+006 1.000681451655e+006 1.000637957187e+006 1.000662618896e+006 1.000522749476e+006 1.000623868212e+006 1.000644409139e+006 1.000780561125e+006 1.000569229929e+006 1.000716359603e+006 1.000560287292e+006 1.000759732982e+006 1.000660753755e+006 1.000770406348e+006 1.000775223131e+006 1.000770761297e+006 1.000766320013e+006 1.000631311030e+006 1.000596338242e+006 1.000478194977e+006 1.000596071237e+006 1.000480337133e+006 1.000904210856e+006 1.000635100735e+006 1.000823889160e+006 1.000639904900e+006 1.000832220201e+006 1.000709804849e+006 1.000639139980e+006 1.000718345255e+006 1.000647702571e+006 1.000650390238e+006 1.000709188796e+006 1.000717751518e+006 1.000620304865e+006 1.000719180684e+006 1.000816160186e+006 1.000715213596e+006 1.000842241878e+006 1.000523979870e+006 1.000583141681e+006 1.000517767188e+006 1.000570609249e+006 1.000804337177e+006 1.000722603894e+006 1.000804927112e+006 1.000723860976e+006 1.000693071105e+006 1.000468488210e+006 1.000906842733e+006 1.000853582854e+006 1.000710891545e+006 1.000618601482e+006 1.000470433783e+006 1.000694294228e+006 1.000902135196e+006 1.000854438612e+006 1.000711643668e+006 1.000619323370e+006 1.000586558356e+006 1.000505631316e+006 1.000695905015e+006 1.000588768628e+006 1.000501444524e+006 1.000699973839e+006 1.000926840518e+006 1.000770250760e+006 1.000842346844e+006 1.000925292785e+006 1.000748801982e+006 1.000843512611e+006 1.000363915802e+006 1.000725991193e+006 1.000380883574e+006 1.000364482617e+006 1.000754419697e+006 1.000397574146e+006 1.000998061252e+006 1.000418477590e+006 1.000969306267e+006 1.000407288991e+006 1.000545496287e+006 1.000868611186e+006 1.000545303300e+006 1.000865218186e+006 1.000618054282e+006 1.000733037987e+006 1.000690880751e+006 1.000620076262e+006 1.000732473923e+006 1.000691217737e+006 1.000573010523e+006 1.000784522330e+006 1.000572640770e+006 1.000783754896e+006 1.000800224800e+006 1.000802927889e+006 1.000738292749e+006 1.000737284654e+006 1.000453652548e+006 1.000446480193e+006 1.000415996479e+006 1.000894692315e+006 1.000366050517e+006 1.000699270272e+006 1.000888613085e+006 1.000862428652e+006 1.000443695996e+006 1.000452655128e+006 1.000467941651e+006 1.000874258075e+006 1.000542329137e+006 1.000876434610e+006 1.000541143196e+006 1.000710396922e+006 1.000418917902e+006 1.000695944157e+006 1.000412641722e+006 1.000399765593e+006 1.000938034743e+006 1.000499747766e+006 1.000203710064e+006 1.001045934489e+006 1.001006986267e+006 1.000908095970e+006 1.000850161916e+006 1.000746339147e+006 1.000893704755e+006 1.000872475044e+006 1.000831748289e+006 1.000444742541e+006 1.000648186205e+006 1.000352724845e+006 1.000712853839e+006 1.000500479916e+006 1.000368820923e+006 1.000508060101e+006 1.000439562535e+006 1.000507469333e+006 1.001031007830e+006 1.001047373682e+006 1.000506208362e+006 1.000900197412e+006 1.000492236904e+006 1.000689078442e+006 1.000916231306e+006 1.000000000000e+006 1.000000000000e+006 1.000294071558e+006 1.000939105340e+006 1.001128193504e+006 1.000422104551e+006 1.000977245519e+006 1.000980531894e+006 1.000246444871e+006 1.001092828433e+006 1.000625133218e+006 1.001039688932e+006 1.000409005543e+006 1.000366189013e+006 1.000356002213e+006 1.000207589512e+006 1.000542773823e+006 1.000426504227e+006 1.001002419060e+006 1.001125221948e+006 1.000650330574e+006 1.000396967938e+006 1.000410989545e+006 1.001015910390e+006 1.000979541099e+006 1.000945039749e+006 1.000955981062e+006 1.000954401550e+006 1.001131141676e+006 1.000662647316e+006 1.000662838213e+006 1.000478301357e+006 1.000575042543e+006 1.000986714823e+006 1.000456677469e+006 1.000331310571e+006 1.000197800026e+006 1.000512245310e+006 1.000773463870e+006 1.000445260444e+006 1.000663445579e+006 1.000355541515e+006 1.000753335017e+006 9.999636031406e+005 1.001080288820e+006 1.000873255326e+006 1.001179278845e+006 1.001044919524e+006 1.000701173580e+006 1.001050300951e+006 1.000784748240e+006 1.000676883252e+006 1.000504848416e+006 1.001070660617e+006 1.000947310711e+006 1.000203770374e+006 1.000520032601e+006 1.001110240104e+006 1.000686000375e+006 1.000685571236e+006 1.001143419406e+006 1.000857028630e+006 1.000688885256e+006 1.000448023154e+006 1.001073770398e+006 1.000964239894e+006 1.000239386578e+006 1.000577250166e+006 1.000637620992e+006 1.000858511995e+006 1.000496938223e+006 1.000430241597e+006 1.001070758893e+006 1.000880672114e+006 1.001065230820e+006 1.001102191058e+006 1.000865717870e+006 1.000195673048e+006 1.000337192262e+006 1.001697988454e+006 1.000994065310e+006 1.001589080425e+006 1.000493388947e+006 1.000189158191e+006 1.000667040149e+006 1.000396202762e+006 1.000923915868e+006 1.001181073866e+006 1.000970463540e+006 1.000959419711e+006 1.001009281506e+006 1.000977000998e+006 1.000988343519e+006 1.001085705101e+006 1.001002779507e+006 1.001124648736e+006 1.001956214991e+006 9.996133460027e+005 1.002030633033e+006 1.000922562856e+006 1.002081707743e+006 1.000546696054e+006 1.000334466971e+006 1.000941054820e+006 1.000945004087e+006 1.001092718143e+006 1.002068054025e+006 1.000490176980e+006 1.000538577300e+006 1.000663135272e+006 1.000662894837e+006 1.000726406138e+006 1.000722825571e+006 1.001056794341e+006 1.000944828701e+006 1.000522836275e+006 1.000528649597e+006 1.000541867911e+006 1.000554296077e+006 1.000930975021e+006 1.000926715640e+006 
        </DataArray>
        <DataArray type="Float64" Name="MEAN_PRESSURE" format="ascii">