<?xml version="1.0"?>
<VTKFile type="UnstructuredGrid" version="0.1" byte_order="LittleEndian">
  <UnstructuredGrid>
    <Piece NumberOfPoints="963" NumberOfCells="1758">
      <Points>
        <DataArray type="Float64" NumberOfComponents="3" format="ascii">
          1.600262034769e+002 1.257989505921e+001 0.000000000000e+000
          1.635346199106e+002 2.000000000000e+001 0.000000000000e+000
          1.554515002484e+002 2.000000000000e+001 0.000000000000e+000
          3.459306441575e+000 1.667621982453e+001 0.000000000000e+000
          3.062266634850e+000 1.705413688405e+001 0.000000000000e+000
          2.873380769063e+000 1.650527725632e+001 0.000000000000e+000
          1.514088444034e+000 1.865189448105e+001 0.000000000000e+000
          1.967902677551e+000 1.834103489750e+001 0.000000000000e+000
          2.034564522234e+000 1.890806711991e+001 0.000000000000e+000
          2.478275273162e+000 1.702762299110e+001 0.000000000000e+000
          2.952621433467e+000 1.774357373580e+001 0.000000000000e+000
          2.237893542067e+000 1.782457469610e+001 0.000000000000e+000
          3.313583922780e+000 3.274674552047e+000 0.000000000000e+000
          2.561432712787e+000 3.156040447793e+000 0.000000000000e+000
          3.047531989640e+000 2.714594415171e+000 0.000000000000e+000
          2.750804692284e+000 3.936058190693e+000 0.000000000000e+000
          2.599039179818e+000 2.451529939148e+000 0.000000000000e+000
          3.139686649742e+000 2.186924052088e+000 0.000000000000e+000
          1.919984553221e+000 3.358010194268e+000 0.000000000000e+000
          1.960900304591e+000 2.773319745251e+000 0.000000000000e+000
          1.894565400391e+000 1.733316857565e+001 0.000000000000e+000
          0.000000000000e+000 1.538461538461e+001 0.000000000000e+000
          5.816229249735e-001 1.567919247147e+001 0.000000000000e+000
          0.000000000000e+000 1.589743589743e+001 0.000000000000e+000
          9.766405669483e+001 2.000000000000e+001 0.000000000000e+000
          1.010672711393e+002 1.500000000000e+001 0.000000000000e+000
          1.029329279907e+002 2.000000000000e+001 0.000000000000e+000
          9.588503785413e+001 1.500000000000e+001 0.000000000000e+000
          1.039231647117e+002 1.000000000000e+001 0.000000000000e+000
          9.860830811271e+001 1.000000000000e+001 0.000000000000e+000
          1.010672711397e+002 5.000000000000e+000 0.000000000000e+000
          9.766405669557e+001 0.000000000000e+000 0.000000000000e+000
          1.029329279915e+002 0.000000000000e+000 0.000000000000e+000
          9.588503785449e+001 5.000000000000e+000 0.000000000000e+000
          7.892434178002e+001 2.000000000000e+001 0.000000000000e+000
          8.173808356948e+001 1.500000000000e+001 0.000000000000e+000
          8.328058896910e+001 2.000000000000e+001 0.000000000000e+000
          7.679274808893e+001 1.514423393202e+001 0.000000000000e+000
          7.970503892166e+001 1.000000000000e+001 0.000000000000e+000
          8.409930620613e+001 1.000000000000e+001 0.000000000000e+000
          8.173808356980e+001 5.000000000000e+000 0.000000000000e+000
          7.892434178065e+001 0.000000000000e+000 0.000000000000e+000
          8.328058896976e+001 0.000000000000e+000 0.000000000000e+000
          7.679274808925e+001 4.855766067979e+000 0.000000000000e+000
          1.084583939765e+002 2.000000000000e+001 0.000000000000e+000
          1.122011528880e+002 1.500000000000e+001 0.000000000000e+000
          1.142529496098e+002 2.000000000000e+001 0.000000000000e+000
          1.065018792644e+002 1.500000000000e+001 0.000000000000e+000
          1.153419838410e+002 1.000000000000e+001 0.000000000000e+000
          1.094968549120e+002 1.000000000000e+001 0.000000000000e+000
          1.122011528884e+002 5.000000000000e+000 0.000000000000e+000
          1.084583939773e+002 0.000000000000e+000 0.000000000000e+000
          1.142529496106e+002 0.000000000000e+000 0.000000000000e+000
          1.065018792648e+002 5.000000000000e+000 0.000000000000e+000
          1.181779812237e+002 1.500000000000e+001 0.000000000000e+000
          1.203297004775e+002 2.000000000000e+001 0.000000000000e+000
          1.214717707847e+002 1.000000000000e+001 0.000000000000e+000
          1.181779812242e+002 5.000000000000e+000 0.000000000000e+000
          1.203297004784e+002 0.000000000000e+000 0.000000000000e+000
          7.477039199538e+001 2.000000000000e+001 0.000000000000e+000
          7.551483469771e+001 1.000000000000e+001 0.000000000000e+000
          7.296959467356e+001 1.385646386579e+001 0.000000000000e+000
          7.477039199599e+001 0.000000000000e+000 0.000000000000e+000
          7.296959467379e+001 6.143536134207e+000 0.000000000000e+000
          6.918477198508e+001 1.366665532880e+001 0.000000000000e+000
          6.746477463053e+001 1.000000000000e+001 0.000000000000e+000
          7.151921701478e+001 1.000000000000e+001 0.000000000000e+000
          6.918477198529e+001 6.333344671202e+000 0.000000000000e+000
          9.263986346551e+001 2.000000000000e+001 0.000000000000e+000
          9.094345943471e+001 1.500000000000e+001 0.000000000000e+000
          9.354026529380e+001 1.000000000000e+001 0.000000000000e+000
          9.263986346623e+001 0.000000000000e+000 0.000000000000e+000
          9.094345943506e+001 5.000000000000e+000 0.000000000000e+000
          1.244344522558e+002 1.503312574389e+001 0.000000000000e+000
          1.267023895482e+002 2.000000000000e+001 0.000000000000e+000
          1.285510028831e+002 1.020485663255e+001 0.000000000000e+000
          1.244344522563e+002 5.033125743893e+000 0.000000000000e+000
          1.267023895491e+002 0.000000000000e+000 0.000000000000e+000
          8.623136018348e+001 1.500000000000e+001 0.000000000000e+000
          8.784898578901e+001 2.000000000000e+001 0.000000000000e+000
          8.870757443665e+001 1.000000000000e+001 0.000000000000e+000
          8.623136018382e+001 5.000000000000e+000 0.000000000000e+000
          8.784898578969e+001 0.000000000000e+000 0.000000000000e+000
          4.872472752737e+000 0.000000000000e+000 0.000000000000e+000
          4.204479229380e+000 6.412840757122e-001 0.000000000000e+000
          4.157376851380e+000 0.000000000000e+000 0.000000000000e+000
          5.192892237051e+000 7.280355562789e-001 0.000000000000e+000
          1.306630304579e+000 6.212843344151e-001 0.000000000000e+000
          1.050228457081e+000 0.000000000000e+000 0.000000000000e+000
          1.614006202528e+000 0.000000000000e+000 0.000000000000e+000
          1.266763055794e+001 1.554696422866e+001 0.000000000000e+000
          1.263589100638e+001 1.657720348306e+001 0.000000000000e+000
          1.174268578662e+001 1.633018318031e+001 0.000000000000e+000
          6.588835695415e+000 7.505681085529e+000 0.000000000000e+000
          6.456871838389e+000 6.658671683861e+000 0.000000000000e+000
          7.208099140752e+000 7.038822846307e+000 0.000000000000e+000
          4.412623338166e+000 9.138856431549e+000 0.000000000000e+000
          4.024185797397e+000 8.708923235630e+000 0.000000000000e+000
          4.601447447338e+000 8.507292699647e+000 0.000000000000e+000
          5.325995059827e-001 6.308307298123e+000 0.000000000000e+000
          0.000000000000e+000 6.666666666655e+000 0.000000000000e+000
          0.000000000000e+000 6.153846153835e+000 0.000000000000e+000
          3.986461521768e+000 8.146114708182e+000 0.000000000000e+000
          2.411603373059e+000 6.510912162016e+000 0.000000000000e+000
          1.807525763324e+000 6.938080373464e+000 0.000000000000e+000
          1.686779352680e+000 6.178928843543e+000 0.000000000000e+000
          2.510760620997e+000 7.229076682239e+000 0.000000000000e+000
          3.166991983438e+000 6.906135870389e+000 0.000000000000e+000
          3.452788915829e+000 6.276851216781e+000 0.000000000000e+000
          3.340122000742e+000 5.656365440432e+000 0.000000000000e+000
          4.047936562877e+000 5.873561587395e+000 0.000000000000e+000
          1.802463974828e+000 1.292744708026e+001 0.000000000000e+000
          1.383967161336e+000 1.330299552906e+001 0.000000000000e+000
          1.329690820161e+000 1.266495373033e+001 0.000000000000e+000
          2.267922292389e+000 1.431116835808e+001 0.000000000000e+000
          2.854613987538e+000 1.466581611369e+001 0.000000000000e+000
          2.339869278674e+000 1.493776402241e+001 0.000000000000e+000
          4.690956878046e+000 3.115726773737e+000 0.000000000000e+000
          4.014773718330e+000 2.850429494150e+000 0.000000000000e+000
          4.643493383296e+000 2.293565471327e+000 0.000000000000e+000
          5.186083944243e+000 1.661927139510e+000 0.000000000000e+000
          5.452965511439e+000 2.679881546544e+000 0.000000000000e+000
          5.360460104304e+000 3.539902157655e+000 0.000000000000e+000
          6.197986304192e+000 3.115706366113e+000 0.000000000000e+000
          7.929356606585e-001 1.634705420870e+001 0.000000000000e+000
          1.222819867503e+000 1.599517159419e+001 0.000000000000e+000
          1.215723647926e+000 1.546209040954e+001 0.000000000000e+000
          1.770601276021e+000 1.521217632514e+001 0.000000000000e+000
          1.242830150061e+000 1.493919370237e+001 0.000000000000e+000
          1.166444124506e+000 4.610115997312e+000 0.000000000000e+000
          1.851620547934e+000 4.486892013458e+000 0.000000000000e+000
          1.494152702314e+000 5.145235789232e+000 0.000000000000e+000
          1.353088107040e+000 4.090803091641e+000 0.000000000000e+000
          3.802567455935e+000 5.084697985980e+000 0.000000000000e+000
          1.014840185783e+000 5.494768572296e+000 0.000000000000e+000
          8.831064584820e-001 5.109311190608e+000 0.000000000000e+000
          1.727903958959e+000 1.618384478933e+001 0.000000000000e+000
          1.343261525342e+000 1.651800241408e+001 0.000000000000e+000
          3.308120627291e+000 8.593311644828e+000 0.000000000000e+000
[...]
      <PointData Scalars="LIQUID_PRESSURE">
        <DataArray type="Float64" Name="LIQUID_PRESSURE" format="ascii">
          9.999239312150e+005 1.000629223188e+006 1.000087020616e+006 9.998884955322e+005 1.000042055836e+006 1.000246359617e+006 1.000182598283e+006 1.000803803868e+006 1.000850213643e+006 1.000830320448e+006 1.000141578437e+006 1.000889440377e+006 9.998148965057e+005 1.000667008870e+006 1.000023403269e+006 1.000329277415e+006 1.000657232753e+006 9.998919305139e+005 1.000774973165e+006 1.000846355054e+006 1.000678831031e+006 1.000728540291e+006 1.000310323195e+006 1.000721255710e+006 1.000263810527e+006 1.000265286874e+006 1.000257248162e+006 1.000262211228e+006 1.000255887983e+006 1.000263329482e+006 1.000265219613e+006 1.000263767656e+006 1.000257534365e+006 1.000262280151e+006 1.000290651197e+006 1.000277560779e+006 1.000282156321e+006 1.000291433852e+006 1.000298225112e+006 1.000275020066e+006 1.000277676939e+006 1.000290730076e+006 1.000282142525e+006 1.000290958685e+006 1.000253698045e+006 1.000244791483e+006 1.000240949918e+006 1.000251802718e+006 1.000238621712e+006 1.000252296796e+006 1.000245094237e+006 1.000253325563e+006 1.000241749231e+006 1.000251898149e+006 1.000239026953e+006 1.000229247990e+006 1.000229217689e+006 1.000238766888e+006 1.000228816165e+006 1.000303944287e+006 1.000280190069e+006 1.000279531173e+006 1.000303756995e+006 1.000280348488e+006 1.000258309321e+006 1.000276238875e+006 1.000340572136e+006 1.000258531278e+006 1.000283080355e+006 1.000269664090e+006 1.000279466829e+006 1.000283091668e+006 1.000269646992e+006 1.000226105034e+006 1.000228293130e+006 1.000224495886e+006 1.000227053379e+006 1.000229866111e+006 1.000292415171e+006 1.000266716394e+006 1.000270587545e+006 1.000292399825e+006 1.000266718624e+006 1.000548468010e+006 1.000740102673e+006 1.000610325791e+006 1.000082819631e+006 9.999361913594e+005 9.998376157933e+005 1.000375021757e+006 1.000407306156e+006 1.000195381850e+006 1.000281827396e+006 1.000884663008e+006 1.000842543808e+006 1.000287560286e+006 1.000857288656e+006 1.000550949727e+006 1.000666252633e+006 1.000316902919e+006 1.000788122529e+006 1.000747310295e+006 1.000524209552e+006 1.000798317667e+006 1.000623172643e+006 1.000484730734e+006 1.000649914757e+006 9.998431571503e+005 9.998670206905e+005 9.998212629551e+005 1.000634491259e+006 1.000576289691e+006 9.999841819868e+005 9.999281421879e+005 1.000910374667e+006 1.000249441444e+006 1.000881746091e+006 1.000610329671e+006 1.000560288142e+006 1.000648227583e+006 1.000071756318e+006 9.998927670981e+005 9.998513172151e+005 1.000532649655e+006 1.000097068383e+006 9.998212825253e+005 9.998206459488e+005 1.000533711151e+006 9.998284720137e+005 9.998302196947e+005 1.000583658542e+006 1.000113959062e+006 9.999073685003e+005 1.000191340686e+006 9.998486845438e+005 9.999522064524e+005 1.000423427410e+006 9.998831831840e+005 9.998160520591e+005 1.000475498067e+006 9.998217266507e+005 1.000022107182e+006 1.000072800841e+006 9.998716239412e+005 1.000091526357e+006 9.999139042698e+005 9.999708819649e+005 1.000089100748e+006 1.000059995948e+006 1.000187318890e+006 1.000640740883e+006 1.000631791492e+006 1.000673052771e+006 9.998508543990e+005 1.000398903543e+006 1.000886529613e+006 1.000564682247e+006 1.000544465840e+006 1.000070391941e+006 9.998676934595e+005 1.000275198549e+006 1.000079323596e+006 9.999441463531e+005 9.999405099603e+005 9.999856910869e+005 1.000477960135e+006 1.000652341298e+006 1.000618751274e+006 1.000661322237e+006 1.000871047015e+006 1.000238016379e+006 1.000782196719e+006 1.000102111988e+006 9.998464825961e+005 1.000494526563e+006 9.998867396886e+005 1.000387242881e+006 1.000599036998e+006 1.000682475441e+006 9.998114245638e+005 1.000614264428e+006 1.000563789449e+006 1.000084598355e+006 1.000830240113e+006 1.000054908253e+006 1.000219397888e+006 9.998499719392e+005 9.999072385481e+005 1.000511083599e+006 1.000871823020e+006 1.000326061354e+006 1.000700466926e+006 1.000890569861e+006 1.000881938500e+006 9.998886819306e+005 1.000873046038e+006 1.000099069064e+006 1.000705130981e+006 9.999438583563e+005 9.998924970285e+005 1.000649876821e+006 1.000834176367e+006 1.000449278309e+006 9.998329440331e+005 9.998238378348e+005 9.998210323715e+005 1.000300320048e+006 9.998514061928e+005 9.999002859513e+005 9.999683087884e+005 9.998500073588e+005 1.000254407298e+006 1.000857692645e+006 1.000367667038e+006 1.000363767782e+006 1.000590194740e+006 1.000875054136e+006 9.998477466760e+005 1.000287045465e+006 9.999024325782e+005 1.000783168702e+006 1.000151972936e+006 1.000879456929e+006 9.998524748077e+005 1.000194395791e+006 9.998691545070e+005 1.000617584237e+006 1.000771684096e+006 9.999549737164e+005 1.000810919753e+006 9.998218696358e+005 9.998726741925e+005 1.000426293883e+006 9.999124012079e+005 1.000263090574e+006 1.000130051792e+006 1.000598100176e+006 1.000580059788e+006 9.998003771241e+005 1.000945203336e+006 1.000318476771e+006 1.000332219735e+006 1.000328567535e+006 1.000782454294e+006 1.000727108848e+006 1.000760173886e+006 1.000777254539e+006 1.000449492206e+006 1.000565757216e+006 1.000502638065e+006 9.998399895826e+005 1.000275108864e+006 1.000589757981e+006 1.000613857365e+006 1.000629184349e+006 1.000649110838e+006 1.000564755522e+006 1.000642630728e+006 1.000508254243e+006 1.000643686127e+006 1.000604512583e+006 1.000663505655e+006 1.000638705052e+006 1.000226209201e+006 1.000288519856e+006 1.000404274568e+006 1.000376337626e+006 1.000377641587e+006 1.000243349298e+006 1.000268509718e+006 1.000234760989e+006 1.000434549649e+006 1.000381428623e+006 1.000389800597e+006 1.000248025808e+006 1.000275812174e+006 1.000225781067e+006 1.000353546494e+006 1.000482644604e+006 1.000352594705e+006 1.000253440901e+006 1.000226599670e+006 1.000279742103e+006 1.000343828691e+006 1.000481748059e+006 1.000348213537e+006 1.000254958278e+006 1.000306737500e+006 1.000346316128e+006 1.000333329697e+006 1.000323283366e+006 1.000309081770e+006 1.000315154757e+006 1.000346327007e+006 1.000306742721e+006 1.000333318114e+006 1.000323260406e+006 1.000309086962e+006 1.000315142570e+006 1.000248813206e+006 1.000442926486e+006 1.000274207298e+006 1.000326350673e+006 1.000244356982e+006 1.000297526410e+006 1.000442920178e+006 1.000248853240e+006 1.000274182297e+006 1.000326338560e+006 1.000244358142e+006 1.000297527489e+006 1.000425047894e+006 1.000351721662e+006 1.000220345542e+006 1.000268058191e+006 1.000351673643e+006 1.000424967660e+006 1.000220302843e+006 1.000267686493e+006 1.000399748248e+006 1.000225672145e+006 1.000482990043e+006 1.000271474648e+006 1.000442292901e+006 1.000390295200e+006 1.000225604842e+006 1.000399741244e+006 1.000483146586e+006 1.000271499437e+006 1.000442308922e+006 1.000390296907e+006 1.000231030347e+006 1.000209061315e+006 1.000274671315e+006 1.000230030237e+006 1.000209363663e+006 1.000274362742e+006 1.000338915882e+006 1.000399560043e+006 1.000326132513e+006 1.000338903062e+006 1.000399550379e+006 1.000326117025e+006 1.000227283716e+006 1.000227428109e+006 1.000408577342e+006 1.000320123596e+006 1.000242250844e+006 1.000254311970e+006 1.000407886996e+006 1.000254495448e+006 1.000356600875e+006 1.000300129337e+006 1.000313893370e+006 1.000332523123e+006 1.000356596444e+006 1.000332516072e+006 1.000275069486e+006 1.000350581159e+006 1.000276388827e+006 1.000336202215e+006 1.000442141413e+006 1.000441656311e+006 1.000335871293e+006 1.000407615004e+006 1.000219869294e+006 1.000219858536e+006 1.000353924586e+006 1.000266328953e+006 1.000353934231e+006 1.000369207341e+006 1.000343577032e+006 1.000369195517e+006 1.000350285159e+006 1.000350278069e+006 1.000304153126e+006 1.000371278598e+006 1.000371270800e+006 1.000362074260e+006 1.000273014278e+006 1.000361924310e+006 1.000302302559e+006 1.000274187256e+006 1.000291720429e+006 1.000270037989e+006 1.000316221183e+006 1.000233824448e+006 1.000314050021e+006 1.000229258989e+006 1.000044484498e+006 1.000067523624e+006 1.000377919136e+006 1.000483271237e+006 1.000186348211e+006 1.000507041777e+006 1.000898507813e+006 1.000293588068e+006 1.000835997814e+006 1.000572096960e+006 1.000228940932e+006 1.000390020693e+006 1.000448939784e+006 1.000010568905e+006 1.000039191809e+006 1.000062724027e+006 1.000603561076e+006 1.000797980895e+006 1.000150359255e+006 1.000637872994e+006 1.000751820578e+006 1.000327388845e+006 1.000668370390e+006 9.997898001883e+005 1.000440073408e+006 1.000318060336e+006 1.000883679891e+006 1.000507340929e+006 1.000110260077e+006 1.000111856205e+006 1.000359725554e+006 1.000867047921e+006 1.000056261382e+006 1.000796970932e+006 1.000416232149e+006 1.000711320982e+006 1.000008100141e+006 1.000073494486e+006 1.000082507425e+006 1.000602075668e+006 1.000034786626e+006 1.000750797063e+006 1.000387346160e+006 1.000568921830e+006 1.000737464158e+006 1.000506442637e+006 1.000217228468e+006 1.000529579935e+006 1.000187374232e+006 9.998325119323e+005 1.000402306367e+006 1.000780085334e+006 1.000354635659e+006 9.999436307034e+005 9.999323512168e+005 1.000244584014e+006 1.000304313281e+006 1.000307618222e+006 1.000599392325e+006 1.000594803227e+006 1.000768169400e+006 1.000412821204e+006 1.000545155806e+006 9.999668027024e+005 1.000819705290e+006 9.998955720370e+005 1.000391924721e+006 1.000316632171e+006 1.000399112593e+006 1.000446504277e+006 9.998520943868e+005 1.000009508655e+006 1.000761239087e+006 9.998834780228e+005 9.999632844352e+005 1.000532072809e+006 1.000515747623e+006 9.999972651328e+005 1.000034964042e+006 9.999969265604e+005 1.000286815016e+006 9.999991261798e+005 1.000478410052e+006 1.000571453314e+006 1.000521213452e+006 1.000002100241e+006 1.000197371706e+006 1.000693248284e+006 1.000786251766e+006 1.000453309330e+006 1.000096283667e+006 1.000151517317e+006 9.999151954710e+005 9.998263844189e+005 1.000539080625e+006 1.000790672259e+006 9.997810162861e+005 9.998665794459e+005 1.000532532515e+006 1.000896899384e+006 1.000415111766e+006 9.999206766805e+005 1.000603521859e+006 1.000726077802e+006 1.000401264424e+006 1.000028636589e+006 1.000821698153e+006 1.000287785221e+006 1.000371285074e+006 1.000277961088e+006 1.000288170800e+006 9.998545323948e+005 1.000000799967e+006 1.000508448768e+006 1.000832945397e+006 1.000312515976e+006 9.998833167554e+005 1.000168800490e+006 1.000562807070e+006 1.000566317706e+006 1.000833265319e+006 1.000047751355e+006 9.999261338361e+005 1.000767140964e+006 1.000715612767e+006 1.000722277541e+006 1.000376956940e+006 9.998246007682e+005 1.000411097055e+006 1.000842320167e+006 1.000296944317e+006 1.000827613255e+006 1.000832744897e+006 1.000550532830e+006 9.998983594350e+005 1.000792320591e+006 1.000787946047e+006 9.998111263858e+005 1.000003989467e+006 1.000569759500e+006 1.000330451734e+006 1.000058307185e+006 1.000139092028e+006 1.000802284673e+006 1.000324602745e+006 1.000487615512e+006 1.000826704371e+006 1.000026660685e+006 1.000249720516e+006 1.000535776495e+006 1.000106882976e+006 1.000195005548e+006 1.000651087694e+006 1.000010943825e+006 1.000126169005e+006 1.000031251714e+006 1.000839636532e+006 1.000899960765e+006 9.999003595693e+005 9.999658705188e+005 1.000088190024e+006 1.000620532905e+006 1.000306111660e+006 1.000337687717e+006 1.000868925699e+006 1.000619361760e+006 1.000317765724e+006 1.000448051852e+006 1.000788356731e+006 1.000795307504e+006 1.000499347998e+006 1.000440643467e+006 1.000034018106e+006 1.000273621531e+006 9.999831645520e+005 1.000895286587e+006 9.997781232136e+005 1.000609541021e+006 1.000409749495e+006 1.000095088659e+006 9.999369616205e+005 1.000689805721e+006 9.999178361561e+005 9.998113759823e+005 1.000253450176e+006 1.000728974845e+006 1.000264981038e+006 1.000640482504e+006 1.000420478425e+006 1.000244025612e+006 1.000781978872e+006 1.000052040549e+006 9.997778950934e+005 1.000750893088e+006 1.000181722962e+006 1.000813553367e+006 9.999749622050e+005 1.000721014519e+006 1.000323826518e+006 9.998085794934e+005 1.000740784500e+006 1.000108999659e+006 1.000805128939e+006 9.999208742012e+005 1.000340702274e+006 1.000554821759e+006 9.998931349830e+005 9.999137380956e+005 1.000606894429e+006 1.000464349410e+006 1.000443324079e+006 1.000333982548e+006 1.000125186764e+006 1.000416117217e+006 1.000791580063e+006 1.000572683137e+006 9.999943312316e+005 1.000789431432e+006 1.000165010525e+006 9.998459942258e+005 1.000729013115e+006 1.000232632839e+006 1.000377856046e+006 1.000381510870e+006 1.000415490204e+006 1.000775271210e+006 1.000349167370e+006 1.000197784467e+006 1.000640072396e+006 9.998668104704e+005 1.000586932602e+006 1.000088677103e+006 1.000628169529e+006 1.000178878325e+006 1.000528897097e+006 1.000185819919e+006 1.000135592929e+006 1.000243040200e+006 1.000262665941e+006 1.000558130610e+006 9.998338821566e+005 9.999136287599e+005 1.000466966772e+006 9.999386223188e+005 1.000261419106e+006 1.000308178891e+006 1.000374903655e+006 1.000306741905e+006 1.000371034796e+006 9.998662632308e+005 1.000165834635e+006 9.998908226458e+005 9.998387253455e+005 1.000198699815e+006 1.000361021910e+006 1.000430587980e+006 1.000360783196e+006 1.000735251246e+006 1.000272035944e+006 1.000107697963e+006 1.000383826119e+006 1.000152856399e+006 9.998630249239e+005 1.000681343645e+006 1.000837278885e+006 9.998518545574e+005 9.997826722654e+005 1.000849752722e+006 9.997954960129e+005 1.000074316978e+006 1.000632592787e+006 1.000749711163e+006 1.000497887419e+006 1.000590644676e+006 1.000825622899e+006 1.000456336323e+006 1.000667324843e+006 1.000590911481e+006 1.000544262660e+006 1.000034832461e+006 1.000213816638e+006 1.000213460457e+006 1.000630514006e+006 1.000564719771e+006 1.000059414823e+006 1.000577168386e+006 1.000563407959e+006 1.000647295781e+006 1.000775501690e+006 1.000431141558e+006 9.999350385734e+005 1.000206318541e+006 1.000172833208e+006 1.000685918767e+006 1.000802544792e+006 1.000728228574e+006 1.000124101099e+006 1.000556916244e+006 1.000594763520e+006 1.000644550332e+006 1.000462112838e+006 1.000151688552e+006 1.000331772873e+006 1.000416839500e+006 1.000516077260e+006 1.000387569311e+006 1.000327729220e+006 1.000527147019e+006 1.000331327036e+006 1.000290819203e+006 1.000316138561e+006 1.000172381439e+006 1.000277191458e+006 1.000297794339e+006 1.000436649423e+006 1.000223645031e+006 1.000374074569e+006 1.000215178460e+006 1.000418444519e+006 1.000317891052e+006 1.000431443805e+006 1.000436576661e+006 1.000431809552e+006 1.000427718941e+006 1.000293166875e+006 1.000257970068e+006 1.000136864061e+006 1.000257882430e+006 1.000139103977e+006 1.000573966694e+006 1.000301225099e+006 1.000490645654e+006 1.000306272997e+006 1.000499139952e+006 1.000355700845e+006 1.000283692402e+006 1.000366904318e+006 1.000297399411e+006 1.000294723264e+006 1.000355134210e+006 1.000366008773e+006 1.000269468860e+006 1.000374642769e+006 1.000475394361e+006 1.000371034187e+006 1.000502000842e+006 1.000178882860e+006 1.000240225746e+006 1.000172524800e+006 1.000227756965e+006 1.000465744179e+006 1.000385739829e+006 1.000466270901e+006 1.000386836743e+006 1.000351222384e+006 1.000123858018e+006 1.000565604328e+006 1.000516923510e+006 1.000366393075e+006 1.000279191808e+006 1.000125864762e+006 1.000352478123e+006 1.000560779279e+006 1.000517799404e+006 1.000367223333e+006 1.000280068929e+006 1.000245084170e+006 1.000166856543e+006 1.000357852183e+006 1.000247106026e+006 1.000162252703e+006 1.000361898834e+006 1.000596322700e+006 1.000436816168e+006 1.000509364810e+006 1.000594197202e+006 1.000415221215e+006 1.000510463981e+006 1.000025710487e+006 1.000393604689e+006 1.000042339330e+006 1.000026299744e+006 1.000423552053e+006 1.000059604267e+006 1.000669814215e+006 1.000082238877e+006 1.000640585410e+006 1.000072477994e+006 1.000206187320e+006 1.000537172139e+006 1.000206053277e+006 1.000533408421e+006 1.000263320379e+006 1.000378520725e+006 1.000337580111e+006 1.000265393041e+006 1.000377987344e+006 1.000337900701e+006 1.000222333562e+006 1.000437562475e+006 1.000221942951e+006 1.000436812595e+006 1.000460380381e+006 1.000463312182e+006 1.000399237012e+006 1.000398249104e+006 1.000110322030e+006 1.000102675116e+006 1.000085762934e+006 1.000573638243e+006 1.000037533881e+006 1.000374833366e+006 1.000555512683e+006 1.000529212750e+006 1.000111061155e+006 1.000120436227e+006 1.000133212701e+006 1.000545294457e+006 1.000206535503e+006 1.000547261175e+006 1.000205129901e+006 1.000377196978e+006 1.000081132847e+006 1.000362248675e+006 1.000074426444e+006 1.000063810945e+006 1.000618659336e+006 1.000165422452e+006 9.998736238472e+005 1.000724291091e+006 1.000684089573e+006 1.000584675905e+006 1.000521094301e+006 1.000417302032e+006 1.000564815680e+006 1.000542811448e+006 1.000501743522e+006 1.000111087853e+006 1.000318633285e+006 1.000015357354e+006 1.000381537129e+006 1.000167989806e+006 1.000035144970e+006 1.000175914485e+006 1.000108249412e+006 1.000172891278e+006 1.000708178524e+006 1.000730300608e+006 1.000178468684e+006 1.000576809002e+006 1.000167971623e+006 1.000364174168e+006 1.000592014825e+006 1.000000000000e+006 1.000000000000e+006 1.000174548863e+006 1.000618750450e+006 1.000814618276e+006 1.000098853693e+006 1.000660040382e+006 1.000663797815e+006 9.999199430347e+005 1.000777567076e+006 1.000301565661e+006 1.000724907686e+006 1.000083880674e+006 1.000035029375e+006 1.000023601144e+006 9.998816114146e+005 1.000217989086e+006 1.000097738280e+006 1.000678278054e+006 1.000808808550e+006 1.000324519289e+006 1.000065251733e+006 1.000083401565e+006 1.000692936966e+006 1.000652377942e+006 1.000625693258e+006 1.000295744294e+006 1.000294006064e+006 1.000818592145e+006 1.000295786775e+006 1.000295990877e+006 1.000149834568e+006 1.000250246810e+006 1.000670353582e+006 1.000123973507e+006 1.000005944789e+006 9.998677009456e+005 1.000191599143e+006 1.000443182223e+006 1.000111890526e+006 1.000333632600e+006 1.000027726400e+006 1.000230397058e+006 1.000175896608e+006 1.000763720073e+006 1.000549496383e+006 1.000231396361e+006 1.000730602513e+006 1.000374960764e+006 1.000737183978e+006 1.000456749979e+006 1.000354441270e+006 1.000342082541e+006 1.000756404303e+006 1.000633456219e+006 9.998771682598e+005 1.000188577908e+006 1.000795501261e+006 1.000329599625e+006 1.000329088683e+006 1.000828077659e+006 1.000533940009e+006 1.000364454232e+006 1.000127125960e+006 1.000756242992e+006 1.000644345873e+006 9.999124276170e+005 1.000255327507e+006 1.000317553663e+006 1.000534847208e+006 1.000171720953e+006 1.000103626679e+006 1.000757494418e+006 1.000560308742e+006 1.000752817142e+006 1.000783407600e+006 1.000542455821e+006 9.998672987787e+005 1.000004970331e+006 1.000222928941e+006 1.000668630717e+006 1.000505428238e+006 1.000162161088e+006 9.998598265297e+005 1.000339039820e+006 1.000071090957e+006 1.000596745970e+006 1.000864552375e+006 1.000641750751e+006 1.000638390761e+006 1.000695088068e+006 1.000663663740e+006 1.000676146908e+006 1.000772128584e+006 1.000687123760e+006 1.000245524664e+006 1.000212308018e+006 1.000164653844e+006 1.000223064878e+006 1.000602620780e+006 1.000214697009e+006 1.000296779832e+006 1.000005984734e+006 1.000619591509e+006 1.000633804949e+006 1.000776041415e+006 1.000206568843e+006 1.000165940744e+006 1.000214737436e+006 1.000297699522e+006 1.000297437124e+006 1.000377409861e+006 1.000373750610e+006 1.000744128485e+006 1.000623934892e+006 1.000171174931e+006 1.000176966444e+006 1.000187476747e+006 1.000200258986e+006 1.000610393509e+006 1.000614089165e+006 
        </DataArray>
        <DataArray type="Float64" Name="MEAN_PRESSURE" format="ascii">