<?xml version="1.0"?>
<VTKFile type="UnstructuredGrid" version="0.1" byte_order="LittleEndian">
  <UnstructuredGrid>
    <Piece NumberOfPoints="963" NumberOfCells="1758">
      <Points>
        <DataArray type="Float64" NumberOfComponents="3" format="ascii">
          1.600262034769e+002 1.257989505921e+001 0.000000000000e+000
          1.635346199106e+002 2.000000000000e+001 0.000000000000e+000
          1.554515002484e+002 2.000000000000e+001 0.000000000000e+000
          3.459306441575e+000 1.667621982453e+001 0.000000000000e+000
          3.062266634850e+000 1.705413688405e+001 0.000000000000e+000
          2.873380769063e+000 1.650527725632e+001 0.000000000000e+000
          1.514088444034e+000 1.865189448105e+001 0.000000000000e+000
          1.967902677551e+000 1.834103489750e+001 0.000000000000e+000
          2.034564522234e+000 1.890806711991e+001 0.000000000000e+000
          2.478275273162e+000 1.702762299110e+001 0.000000000000e+000
          2.952621433467e+000 1.774357373580e+001 0.000000000000e+000
          2.237893542067e+000 1.782457469610e+001 0.000000000000e+000
          3.313583922780e+000 3.274674552047e+000 0.000000000000e+000
          2.561432712787e+000 3.156040447793e+000 0.000000000000e+000
          3.047531989640e+000 2.714594415171e+000 0.000000000000e+000
          2.750804692284e+000 3.936058190693e+000 0.000000000000e+000
          2.599039179818e+000 2.451529939148e+000 0.000000000000e+000
          3.139686649742e+000 2.186924052088e+000 0.000000000000e+000
          1.919984553221e+000 3.358010194268e+000 0.000000000000e+000
          1.960900304591e+000 2.773319745251e+000 0.000000000000e+000
          1.894565400391e+000 1.733316857565e+001 0.000000000000e+000
          0.000000000000e+000 1.538461538461e+001 0.000000000000e+000
          5.816229249735e-001 1.567919247147e+001 0.000000000000e+000
          0.000000000000e+000 1.589743589743e+001 0.000000000000e+000
          9.766405669483e+001 2.000000000000e+001 0.000000000000e+000
          1.010672711393e+002 1.500000000000e+001 0.000000000000e+000
          1.029329279907e+002 2.000000000000e+001 0.000000000000e+000
          9.588503785413e+001 1.500000000000e+001 0.000000000000e+000
          1.039231647117e+002 1.000000000000e+001 0.000000000000e+000
          9.860830811271e+001 1.000000000000e+001 0.000000000000e+000
          1.010672711397e+002 5.000000000000e+000 0.000000000000e+000
          9.766405669557e+001 0.000000000000e+000 0.000000000000e+000
          1.029329279915e+002 0.000000000000e+000 0.000000000000e+000
          9.588503785449e+001 5.000000000000e+000 0.000000000000e+000
          7.892434178002e+001 2.000000000000e+001 0.000000000000e+000
          8.173808356948e+001 1.500000000000e+001 0.000000000000e+000
          8.328058896910e+001 2.000000000000e+001 0.000000000000e+000
          7.679274808893e+001 1.514423393202e+001 0.000000000000e+000
          7.970503892166e+001 1.000000000000e+001 0.000000000000e+000
          8.409930620613e+001 1.000000000000e+001 0.000000000000e+000
          8.173808356980e+001 5.000000000000e+000 0.000000000000e+000
          7.892434178065e+001 0.000000000000e+000 0.000000000000e+000
          8.328058896976e+001 0.000000000000e+000 0.000000000000e+000
          7.679274808925e+001 4.855766067979e+000 0.000000000000e+000
          1.084583939765e+002 2.000000000000e+001 0.000000000000e+000
          1.122011528880e+002 1.500000000000e+001 0.000000000000e+000
          1.142529496098e+002 2.000000000000e+001 0.000000000000e+000
          1.065018792644e+002 1.500000000000e+001 0.000000000000e+000
          1.153419838410e+002 1.000000000000e+001 0.000000000000e+000
          1.094968549120e+002 1.000000000000e+001 0.000000000000e+000
          1.122011528884e+002 5.000000000000e+000 0.000000000000e+000
          1.084583939773e+002 0.000000000000e+000 0.000000000000e+000
          1.142529496106e+002 0.000000000000e+000 0.000000000000e+000
          1.065018792648e+002 5.000000000000e+000 0.000000000000e+000
          1.181779812237e+002 1.500000000000e+001 0.000000000000e+000
          1.203297004775e+002 2.000000000000e+001 0.000000000000e+000
          1.214717707847e+002 1.000000000000e+001 0.000000000000e+000
          1.181779812242e+002 5.000000000000e+000 0.000000000000e+000
          1.203297004784e+002 0.000000000000e+000 0.000000000000e+000
          7.477039199538e+001 2.000000000000e+001 0.000000000000e+000
          7.551483469771e+001 1.000000000000e+001 0.000000000000e+000
          7.296959467356e+001 1.385646386579e+001 0.000000000000e+000
          7.477039199599e+001 0.000000000000e+000 0.000000000000e+000
          7.296959467379e+001 6.143536134207e+000 0.000000000000e+000
          6.918477198508e+001 1.366665532880e+001 0.000000000000e+000
          6.746477463053e+001 1.000000000000e+001 0.000000000000e+000
          7.151921701478e+001 1.000000000000e+001 0.000000000000e+000
          6.918477198529e+001 6.333344671202e+000 0.000000000000e+000
          9.263986346551e+001 2.000000000000e+001 0.000000000000e+000
          9.094345943471e+001 1.500000000000e+001 0.000000000000e+000
          9.354026529380e+001 1.000000000000e+001 0.000000000000e+000
          9.263986346623e+001 0.000000000000e+000 0.000000000000e+000
          9.094345943506e+001 5.000000000000e+000 0.000000000000e+000
          1.244344522558e+002 1.503312574389e+001 0.000000000000e+000
          1.267023895482e+002 2.000000000000e+001 0.000000000000e+000
          1.285510028831e+002 1.020485663255e+001 0.000000000000e+000
          1.244344522563e+002 5.033125743893e+000 0.000000000000e+000
          1.267023895491e+002 0.000000000000e+000 0.000000000000e+000
          8.623136018348e+001 1.500000000000e+001 0.000000000000e+000
          8.784898578901e+001 2.000000000000e+001 0.000000000000e+000
          8.870757443665e+001 1.000000000000e+001 0.000000000000e+000
          8.623136018382e+001 5.000000000000e+000 0.000000000000e+000
          8.784898578969e+001 0.000000000000e+000 0.000000000000e+000
          4.872472752737e+000 0.000000000000e+000 0.000000000000e+000
          4.204479229380e+000 6.412840757122e-001 0.000000000000e+000
          4.157376851380e+000 0.000000000000e+000 0.000000000000e+000
          5.192892237051e+000 7.280355562789e-001 0.000000000000e+000
          1.306630304579e+000 6.212843344151e-001 0.000000000000e+000
          1.050228457081e+000 0.000000000000e+000 0.000000000000e+000
          1.614006202528e+000 0.000000000000e+000 0.000000000000e+000
          1.266763055794e+001 1.554696422866e+001 0.000000000000e+000
          1.263589100638e+001 1.657720348306e+001 0.000000000000e+000
          1.174268578662e+001 1.633018318031e+001 0.000000000000e+000
          6.588835695415e+000 7.505681085529e+000 0.000000000000e+000
          6.456871838389e+000 6.658671683861e+000 0.000000000000e+000
          7.208099140752e+000 7.038822846307e+000 0.000000000000e+000
          4.412623338166e+000 9.138856431549e+000 0.000000000000e+000
          4.024185797397e+000 8.708923235630e+000 0.000000000000e+000
          4.601447447338e+000 8.507292699647e+000 0.000000000000e+000
          5.325995059827e-001 6.308307298123e+000 0.000000000000e+000
          0.000000000000e+000 6.666666666655e+000 0.000000000000e+000
          0.000000000000e+000 6.153846153835e+000 0.000000000000e+000
          3.986461521768e+000 8.146114708182e+000 0.000000000000e+000
          2.411603373059e+000 6.510912162016e+000 0.000000000000e+000
          1.807525763324e+000 6.938080373464e+000 0.000000000000e+000
          1.686779352680e+000 6.178928843543e+000 0.000000000000e+000
          2.510760620997e+000 7.229076682239e+000 0.000000000000e+000
          3.166991983438e+000 6.906135870389e+000 0.000000000000e+000
          3.452788915829e+000 6.276851216781e+000 0.000000000000e+000
          3.340122000742e+000 5.656365440432e+000 0.000000000000e+000
          4.047936562877e+000 5.873561587395e+000 0.000000000000e+000
          1.802463974828e+000 1.292744708026e+001 0.000000000000e+000
          1.383967161336e+000 1.330299552906e+001 0.000000000000e+000
          1.329690820161e+000 1.266495373033e+001 0.000000000000e+000
          2.267922292389e+000 1.431116835808e+001 0.000000000000e+000
          2.854613987538e+000 1.466581611369e+001 0.000000000000e+000
          2.339869278674e+000 1.493776402241e+001 0.000000000000e+000
          4.690956878046e+000 3.115726773737e+000 0.000000000000e+000
          4.014773718330e+000 2.850429494150e+000 0.000000000000e+000
          4.643493383296e+000 2.293565471327e+000 0.000000000000e+000
          5.186083944243e+000 1.661927139510e+000 0.000000000000e+000
          5.452965511439e+000 2.679881546544e+000 0.000000000000e+000
          5.360460104304e+000 3.539902157655e+000 0.000000000000e+000
          6.197986304192e+000 3.115706366113e+000 0.000000000000e+000
          7.929356606585e-001 1.634705420870e+001 0.000000000000e+000
          1.222819867503e+000 1.599517159419e+001 0.000000000000e+000
          1.215723647926e+000 1.546209040954e+001 0.000000000000e+000
          1.770601276021e+000 1.521217632514e+001 0.000000000000e+000
          1.242830150061e+000 1.493919370237e+001 0.000000000000e+000
          1.166444124506e+000 4.610115997312e+000 0.000000000000e+000
          1.851620547934e+000 4.486892013458e+000 0.000000000000e+000
          1.494152702314e+000 5.145235789232e+000 0.000000000000e+000
          1.353088107040e+000 4.090803091641e+000 0.000000000000e+000
          3.802567455935e+000 5.084697985980e+000 0.000000000000e+000
          1.014840185783e+000 5.494768572296e+000 0.000000000000e+000
          8.831064584820e-001 5.109311190608e+000 0.000000000000e+000
          1.727903958959e+000 1.618384478933e+001 0.000000000000e+000
          1.343261525342e+000 1.651800241408e+001 0.000000000000e+000
          3.308120627291e+000 8.593311644828e+000 0.000000000000e+000
[...]
      <PointData Scalars="LIQUID_PRESSURE">
        <DataArray type="Float64" Name="LIQUID_PRESSURE" format="ascii">
          1.000452201445e+006 9.997657470869e+005 1.000247752231e+006 9.998327616998e+005 9.999726552426e+005 1.000163721712e+006 1.000097112412e+006 1.000669464048e+006 1.000706789240e+006 1.000699202300e+006 1.000068227031e+006 1.000745893226e+006 9.997653782672e+005 1.000543264155e+006 9.999599222383e+005 1.000231681801e+006 1.000539628764e+006 9.998356244387e+005 1.000642204952e+006 1.000705412439e+006 1.000553728954e+006 1.000602927708e+006 1.000237835433e+006 1.000598360879e+006 1.000200989325e+006 1.000200763202e+006 1.000197596205e+006 1.000201359645e+006 1.000196961272e+006 1.000200474136e+006 1.000200725745e+006 1.000200969230e+006 1.000197614776e+006 1.000201375008e+006 1.000214151683e+006 1.000209960314e+006 1.000211773849e+006 1.000217215097e+006 1.000218073572e+006 1.000208920775e+006 1.000210020674e+006 1.000214288825e+006 1.000211729485e+006 1.000216973029e+006 1.000195319208e+006 1.000192154572e+006 1.000191023801e+006 1.000195354092e+006 1.000189860054e+006 1.000194752399e+006 1.000192030183e+006 1.000195283574e+006 1.000190976813e+006 1.000195386527e+006 1.000188701787e+006 1.000185539202e+006 1.000185739682e+006 1.000189054998e+006 1.000185267135e+006 1.000226226493e+006 1.000211965866e+006 1.000208555868e+006 1.000225845665e+006 1.000208845079e+006 1.000201969072e+006 1.000206505870e+006 1.000244170485e+006 1.000202333506e+006 1.000208601380e+006 1.000204923248e+006 1.000207314262e+006 1.000208597388e+006 1.000204915540e+006 1.000183475184e+006 1.000181480407e+006 1.000171850960e+006 1.000180891962e+006 1.000182232277e+006 1.000213801041e+006 1.000204986388e+006 1.000205853709e+006 1.000213789970e+006 1.000204997528e+006 1.000462289397e+006 1.000614491695e+006 1.000490691713e+006 1.000020060019e+006 9.998723776725e+005 9.997828128025e+005 1.000271832755e+006 1.000317144565e+006 1.000116528341e+006 1.000198625619e+006 1.000758031213e+006 1.000714862907e+006 1.000203490573e+006 1.000743689284e+006 1.000446769973e+006 1.000557492015e+006 1.000245336439e+006 1.000678379584e+006 1.000640081662e+006 1.000426094663e+006 1.000666376290e+006 1.000502741888e+006 1.000373391450e+006 1.000535523438e+006 9.997903757769e+005 9.998042966776e+005 9.997700992013e+005 1.000524007630e+006 1.000460844291e+006 9.999152707656e+005 9.998603993313e+005 1.000768088768e+006 1.000168930816e+006 1.000748860846e+006 1.000510192813e+006 1.000461327262e+006 1.000543401275e+006 1.000009400537e+006 9.998423586988e+005 9.998007433790e+005 1.000426042532e+006 1.000041120640e+006 9.997683807245e+005 9.997670943163e+005 1.000420577750e+006 9.997719227077e+005 9.997774659714e+005 1.000458484861e+006 1.000031261284e+006 9.998431785635e+005 1.000105868973e+006 9.997960127541e+005 9.999018396940e+005 1.000319602240e+006 9.998226346652e+005 9.997608483170e+005 1.000376434950e+006 9.997615715415e+005 9.999667177275e+005 1.000017489137e+006 9.998096706236e+005 1.000033261213e+006 9.998611830018e+005 9.998968537153e+005 1.000019027206e+006 1.000004596722e+006 1.000109895413e+006 1.000518942371e+006 1.000539398203e+006 1.000538144050e+006 9.997920504745e+005 1.000296529483e+006 1.000738501265e+006 1.000461059689e+006 1.000458836128e+006 9.999989235952e+005 9.998068148675e+005 1.000184613374e+006 9.999978824724e+005 9.998738451993e+005 9.998866092768e+005 9.999383912826e+005 1.000372382310e+006 1.000523272562e+006 1.000524878169e+006 1.000530713886e+006 1.000733462248e+006 1.000148024569e+006 1.000657367248e+006 1.000022553824e+006 9.997938418827e+005 1.000390735018e+006 9.998187399782e+005 1.000299121942e+006 1.000511671320e+006 1.000561760783e+006 9.997644047384e+005 1.000487899289e+006 1.000445046397e+006 1.000014679064e+006 1.000697946065e+006 1.000000323288e+006 1.000160960161e+006 9.997883957104e+005 9.998406490407e+005 1.000400305885e+006 1.000732939230e+006 1.000234956258e+006 1.000585748245e+006 1.000751093992e+006 1.000746786464e+006 9.998430577409e+005 1.000738260307e+006 1.000017838297e+006 1.000581898421e+006 9.998844695237e+005 9.998309935546e+005 1.000534087726e+006 1.000693205931e+006 1.000339896918e+006 9.997742275445e+005 9.997722551063e+005 9.997574994933e+005 1.000206978358e+006 9.997940357109e+005 9.998400375106e+005 9.998979108722e+005 9.998006234477e+005 1.000159658413e+006 1.000718767314e+006 1.000255897115e+006 1.000253160538e+006 1.000483388994e+006 1.000737667564e+006 9.998043773316e+005 1.000190172151e+006 9.998397226901e+005 1.000659374690e+006 1.000072869254e+006 1.000757523027e+006 9.997999978296e+005 1.000108340414e+006 9.998141747370e+005 1.000497871744e+006 1.000648019651e+006 9.998984977728e+005 1.000676444511e+006 9.997676463513e+005 9.998157792975e+005 1.000330468346e+006 9.998460184275e+005 1.000199902283e+006 1.000059691213e+006 1.000477059306e+006 1.000458789467e+006 9.997531976912e+005 1.000796950055e+006 1.000219742823e+006 1.000268314250e+006 1.000255907259e+006 1.000670286508e+006 1.000607089880e+006 1.000639612574e+006 1.000657193661e+006 1.000374348471e+006 1.000449831116e+006 1.000426355320e+006 9.997907139845e+005 1.000217323048e+006 1.000464168527e+006 1.000513280033e+006 1.000499205019e+006 1.000518665263e+006 1.000483799006e+006 1.000511581988e+006 1.000434454903e+006 1.000516457664e+006 1.000513187903e+006 1.000526748283e+006 1.000505799536e+006 1.000168397453e+006 1.000213783708e+006 1.000294653702e+006 1.000273475463e+006 1.000271782561e+006 1.000183395667e+006 1.000200795249e+006 1.000172366702e+006 1.000317670355e+006 1.000276959021e+006 1.000280052591e+006 1.000186269984e+006 1.000199236836e+006 1.000171360669e+006 1.000264404827e+006 1.000347069871e+006 1.000258156122e+006 1.000191621298e+006 1.000172387075e+006 1.000202008619e+006 1.000258040322e+006 1.000346072968e+006 1.000255043560e+006 1.000192657840e+006 1.000226484044e+006 1.000255084408e+006 1.000251622796e+006 1.000232906903e+006 1.000230480745e+006 1.000232456888e+006 1.000255096449e+006 1.000226495150e+006 1.000251612653e+006 1.000232896307e+006 1.000230486706e+006 1.000232451470e+006 1.000183399302e+006 1.000325403482e+006 1.000198949341e+006 1.000236040033e+006 1.000180292399e+006 1.000219441194e+006 1.000325397647e+006 1.000183426741e+006 1.000198929661e+006 1.000236030020e+006 1.000180291558e+006 1.000219442192e+006 1.000324159981e+006 1.000264066584e+006 1.000154114261e+006 1.000192488729e+006 1.000264029911e+006 1.000324088946e+006 1.000154104256e+006 1.000192153021e+006 1.000289007632e+006 1.000164579696e+006 1.000351253018e+006 1.000206425155e+006 1.000324800602e+006 1.000284531386e+006 1.000164502451e+006 1.000288996653e+006 1.000351391060e+006 1.000206445022e+006 1.000324806887e+006 1.000284533484e+006 1.000173091028e+006 1.000163231470e+006 1.000198522370e+006 1.000172336517e+006 1.000163590345e+006 1.000198340375e+006 1.000250858930e+006 1.000296291905e+006 1.000242433083e+006 1.000250866134e+006 1.000296262094e+006 1.000242400208e+006 1.000167389028e+006 1.000167423098e+006 1.000301581475e+006 1.000229445039e+006 1.000183012619e+006 1.000187638681e+006 1.000301005544e+006 1.000187824296e+006 1.000259730062e+006 1.000224425555e+006 1.000231833656e+006 1.000242677638e+006 1.000259727381e+006 1.000242675712e+006 1.000204852614e+006 1.000254258476e+006 1.000205761018e+006 1.000245169380e+006 1.000335455071e+006 1.000334907783e+006 1.000244674821e+006 1.000306095469e+006 1.000160477993e+006 1.000160454625e+006 1.000261548922e+006 1.000194307806e+006 1.000261555590e+006 1.000271884416e+006 1.000252682368e+006 1.000271877218e+006 1.000262806281e+006 1.000262848064e+006 1.000226172223e+006 1.000270091074e+006 1.000270080799e+006 1.000258431768e+006 1.000207055220e+006 1.000258665862e+006 1.000222112511e+006 1.000209647506e+006 1.000220764417e+006 1.000206677576e+006 1.000228414234e+006 1.000186134411e+006 1.000228067914e+006 1.000183232921e+006 9.999766253769e+005 9.999916461162e+005 1.000290258809e+006 1.000383753444e+006 1.000098832894e+006 1.000402505610e+006 1.000761707128e+006 1.000208498569e+006 1.000689716603e+006 1.000478394727e+006 1.000152766595e+006 1.000288346722e+006 1.000374691735e+006 9.999396287829e+005 1.000497212838e+006 9.998601026442e+005 1.000675864648e+006 1.000686866597e+006 1.000067641988e+006 1.000529347950e+006 1.000633824686e+006 1.000235892030e+006 1.000546137247e+006 9.997361396679e+005 1.000340469581e+006 1.000223078602e+006 1.000741516663e+006 1.000396893686e+006 1.000041411644e+006 1.000033089361e+006 1.000267706299e+006 1.000728961724e+006 9.999875696474e+005 1.000682414808e+006 1.000344643156e+006 1.000592715298e+006 9.999237804009e+005 1.000006238594e+006 1.000011913088e+006 1.000496123809e+006 9.999596048971e+005 1.000632344779e+006 1.000284441074e+006 1.000468590996e+006 1.000616112194e+006 1.000402803307e+006 1.000155672104e+006 1.000420260472e+006 1.000099155402e+006 9.997727577375e+005 1.000298342471e+006 1.000659406641e+006 1.000275752319e+006 9.998877846914e+005 9.998683406950e+005 1.000157678272e+006 1.000214727544e+006 1.000224881955e+006 1.000500898414e+006 1.000491625716e+006 1.000650581348e+006 1.000310603991e+006 1.000432708926e+006 9.998934805413e+005 1.000702241075e+006 9.998393768129e+005 1.000297740784e+006 1.000234267097e+006 1.000306166624e+006 1.000343836052e+006 9.997951501722e+005 9.999404122194e+005 1.000644028550e+006 9.998227742378e+005 9.999047410385e+005 1.000431710868e+006 1.000405118999e+006 9.999367829940e+005 9.999615713134e+005 9.999234639808e+005 1.000193928890e+006 9.999345082518e+005 1.000378154959e+006 1.000470165328e+006 1.000411908070e+006 9.999311526671e+005 1.000118338023e+006 1.000576760817e+006 1.000660012819e+006 1.000348880737e+006 1.000021451501e+006 1.000072233409e+006 9.998553282160e+005 9.997717526272e+005 1.000442901289e+006 1.000672092922e+006 9.997321531313e+005 9.998159139294e+005 1.000426851402e+006 1.000758305816e+006 1.000321024816e+006 9.998666584568e+005 1.000495463531e+006 1.000606536631e+006 1.000307934601e+006 9.999634327109e+005 1.000706068918e+006 1.000206090030e+006 1.000278178086e+006 1.000179761078e+006 1.000189942631e+006 9.998089771067e+005 9.999327012887e+005 1.000416269506e+006 1.000709587908e+006 1.000230805824e+006 9.998292838345e+005 1.000089335155e+006 1.000464929477e+006 1.000466773893e+006 1.000704459582e+006 9.999741792586e+005 9.998749525684e+005 1.000670092543e+006 1.000602064863e+006 1.000611062385e+006 1.000279347788e+006 9.997728822735e+005 1.000340844273e+006 1.000730472248e+006 1.000217316029e+006 1.000710840468e+006 1.000712344154e+006 1.000445930012e+006 9.998380574216e+005 1.000673424198e+006 1.000654159008e+006 9.997567665280e+005 9.999427668034e+005 1.000461454745e+006 1.000246960967e+006 9.999842215274e+005 1.000061618066e+006 1.000680050425e+006 1.000245265481e+006 1.000380372840e+006 1.000695204065e+006 9.999490912541e+005 1.000165412928e+006 1.000428088893e+006 1.000027680645e+006 1.000116236284e+006 1.000541266737e+006 9.999448332701e+005 1.000053351754e+006 9.999650836289e+005 1.000713536824e+006 1.000755186984e+006 9.998489445424e+005 9.999028215608e+005 1.000021886299e+006 1.000513111778e+006 1.000217583944e+006 1.000245962327e+006 1.000728653237e+006 1.000494366677e+006 1.000225579121e+006 1.000352965521e+006 1.000682094690e+006 1.000671130865e+006 1.000396456960e+006 1.000344419497e+006 9.999563546753e+005 1.000197438416e+006 9.999221204437e+005 1.000752507192e+006 9.997301684184e+005 1.000519001759e+006 1.000311643212e+006 1.000019797200e+006 9.998725219856e+005 1.000585890369e+006 9.998676571609e+005 9.997641259140e+005 1.000191659887e+006 1.000614426728e+006 1.000178584090e+006 1.000536875468e+006 1.000327966116e+006 1.000163750584e+006 1.000664614083e+006 9.999786590988e+005 9.997383349268e+005 1.000624272578e+006 1.000102688481e+006 1.000682327665e+006 9.999049890816e+005 1.000607946906e+006 1.000245229395e+006 9.997566795798e+005 1.000638403650e+006 1.000016612099e+006 1.000690368177e+006 9.998608924357e+005 1.000268544231e+006 1.000472088073e+006 9.998329880730e+005 9.998501083521e+005 1.000501988794e+006 1.000110717749e+006 1.000267540549e+006 1.000159496504e+006 1.000038451722e+006 1.000345069766e+006 1.000662390013e+006 1.000459174043e+006 9.999292164701e+005 1.000677966756e+006 1.000082028490e+006 9.997876408863e+005 1.000628686801e+006 1.000159285033e+006 1.000265980119e+006 1.000267996209e+006 1.000344554451e+006 1.000656643143e+006 1.000247869747e+006 1.000118918000e+006 1.000536625888e+006 9.998128079610e+005 1.000476568803e+006 1.000035815183e+006 1.000514421669e+006 1.000096170831e+006 1.000439828433e+006 1.000099169248e+006 1.000058973634e+006 9.991407625655e+005 1.000756218610e+006 1.000449150286e+006 9.997766911301e+005 9.998468844671e+005 1.000373474860e+006 9.998671178580e+005 1.000193751339e+006 1.000213136829e+006 1.000278235662e+006 1.000212734824e+006 1.000275339847e+006 9.998094385644e+005 1.000107507175e+006 9.998305863306e+005 9.997929272559e+005 1.000132739128e+006 1.000269460720e+006 1.000327229568e+006 1.000269214762e+006 1.000629213432e+006 1.000188584100e+006 1.000024234055e+006 1.000290271059e+006 1.000074232925e+006 9.998103930218e+005 1.000562186026e+006 1.000715380124e+006 9.997973720212e+005 9.997368246435e+005 1.000709466350e+006 9.997353052710e+005 1.000000362618e+006 1.000525180554e+006 1.000676908291e+006 1.000486100319e+006 1.000507941596e+006 1.000682473519e+006 1.000346927724e+006 1.000547907188e+006 1.000478975755e+006 1.000464356546e+006 9.999701482376e+005 1.000172952852e+006 1.000173195373e+006 1.000520079194e+006 1.000459710611e+006 9.999943844380e+005 1.000459556235e+006 1.000449298246e+006 1.000535150873e+006 1.000658119977e+006 1.000336298121e+006 9.998794230704e+005 1.000126812962e+006 1.000095719498e+006 1.000580238351e+006 1.000686581218e+006 1.000604692245e+006 1.000044608750e+006 1.000429385266e+006 1.000506894634e+006 1.000515326670e+006 1.000368436103e+006 1.000082429642e+006 1.000245406688e+006 1.000339768149e+006 1.000405082817e+006 1.000291824983e+006 1.000243719625e+006 1.000413727366e+006 1.000240258633e+006 1.000199235224e+006 1.000230530800e+006 1.000098589203e+006 1.000192890392e+006 1.000207530075e+006 1.000345535258e+006 1.000148590154e+006 1.000279983983e+006 1.000138099123e+006 1.000319732073e+006 1.000236084411e+006 1.000339704048e+006 1.000339622845e+006 1.000340144800e+006 1.000330735071e+006 1.000203969675e+006 1.000176675590e+006 1.000064914679e+006 1.000175795983e+006 1.000066757742e+006 1.000460999854e+006 1.000211042123e+006 1.000392973215e+006 1.000214639671e+006 1.000400486421e+006 1.000268536448e+006 1.000204842274e+006 1.000284915008e+006 1.000216157638e+006 1.000216662518e+006 1.000267673366e+006 1.000285216356e+006 1.000190727391e+006 1.000280430174e+006 1.000369273887e+006 1.000275360102e+006 1.000393423736e+006 1.000103462793e+006 1.000158630211e+006 1.000097839629e+006 1.000146032071e+006 1.000373331851e+006 1.000289394899e+006 1.000374176568e+006 1.000291194453e+006 1.000257739845e+006 1.000052469986e+006 1.000462488973e+006 1.000414110165e+006 1.000274940804e+006 1.000182781940e+006 1.000054142467e+006 1.000258899726e+006 1.000458263555e+006 1.000414783839e+006 1.000275488235e+006 1.000182993721e+006 1.000171633164e+006 1.000086207675e+006 1.000267163311e+006 1.000174282124e+006 1.000083296039e+006 1.000271200658e+006 1.000484402179e+006 1.000341687877e+006 1.000406675274e+006 1.000484782648e+006 1.000321017018e+006 1.000408044600e+006 9.999585383738e+005 1.000304199079e+006 9.999752590947e+005 9.999594565365e+005 1.000327750122e+006 9.999904526885e+005 1.000564694270e+006 1.000019081374e+006 1.000538109340e+006 1.000003388673e+006 1.000129110974e+006 1.000427850337e+006 1.000128740075e+006 1.000425572221e+006 1.000189968998e+006 1.000278498292e+006 1.000245743998e+006 1.000191751389e+006 1.000277873994e+006 1.000246132505e+006 1.000148760586e+006 1.000338465010e+006 1.000148392385e+006 1.000337687932e+006 1.000355638228e+006 1.000357540517e+006 1.000304959671e+006 1.000303837171e+006 1.000047104375e+006 1.000041497685e+006 1.000020311402e+006 1.000470294381e+006 9.999655108566e+005 1.000302361970e+006 1.000456894578e+006 1.000431122967e+006 1.000035852258e+006 1.000043187750e+006 1.000051242272e+006 1.000441726457e+006 1.000130955756e+006 1.000443886572e+006 1.000129659308e+006 1.000283404302e+006 1.000011644026e+006 1.000270770726e+006 1.000006422954e+006 9.999889233762e+005 1.000501492012e+006 1.000083748303e+006 9.998100966982e+005 1.000622394553e+006 1.000567689211e+006 1.000473880953e+006 1.000418002683e+006 1.000320481967e+006 1.000463506078e+006 1.000444707769e+006 1.000405853099e+006 1.000036678779e+006 1.000225359848e+006 9.999580563120e+005 1.000294567847e+006 1.000092529325e+006 9.999639847316e+005 1.000099044717e+006 1.000024796524e+006 1.000106361345e+006 1.000592463555e+006 1.000616337472e+006 1.000101307768e+006 1.000464031870e+006 1.000089828370e+006 1.000293324712e+006 1.000481072132e+006 1.000000000000e+006 1.000000000000e+006 1.000118105811e+006 1.000518003354e+006 1.000686662888e+006 1.000017324714e+006 1.000548272415e+006 1.000548720125e+006 9.998585511223e+005 1.000664592917e+006 1.000219656606e+006 1.000609888698e+006 1.000006396550e+006 9.999659210139e+005 9.999580558657e+005 9.998184301127e+005 1.000143523020e+006 1.000015458226e+006 1.000569005340e+006 1.000691648077e+006 1.000227095650e+006 9.999953174558e+005 1.000008393502e+006 1.000588503549e+006 1.000541350689e+006 1.000521132923e+006 1.000217808580e+006 1.000216734382e+006 1.000691180840e+006 1.000209243581e+006 1.000209384762e+006 1.000058010254e+006 1.000175356983e+006 1.000554442323e+006 1.000048505637e+006 9.999345449568e+005 9.998165646802e+005 1.000104853155e+006 1.000350490012e+006 1.000036213708e+006 1.000240753568e+006 9.999605431918e+005 1.000122841330e+006 1.000136311349e+006 1.000641630665e+006 1.000448644506e+006 1.000287495144e+006 1.000614194345e+006 1.000309538628e+006 1.000615156814e+006 1.000362234102e+006 1.000264405397e+006 1.000258422403e+006 1.000637660915e+006 1.000513561095e+006 9.998121135813e+005 1.000116926613e+006 1.000676572617e+006 1.000240493646e+006 1.000240305605e+006 1.000712382901e+006 1.000454916909e+006 1.000271581819e+006 1.000040963599e+006 1.000649053435e+006 1.000551704990e+006 9.998529143944e+005 1.000173099697e+006 1.000221102409e+006 1.000444657726e+006 1.000091793546e+006 1.000037514977e+006 1.000636191641e+006 1.000465656429e+006 1.000628460199e+006 1.000662257836e+006 1.000439393842e+006 9.998141491412e+005 9.999380426166e+005 1.000206855946e+006 1.000564742597e+006 1.000090009249e+006 1.000081471465e+006 9.998059581567e+005 1.000250653365e+006 1.000002842316e+006 1.000500500796e+006 1.000747363326e+006 1.000535658924e+006 1.000546189620e+006 1.000570613547e+006 1.000543824098e+006 1.000551455599e+006 1.000652140025e+006 1.000576245318e+006 1.000160771110e+006 1.000167150803e+006 1.000397120305e+006 1.000168287733e+006 1.000510034718e+006 1.000178412890e+006 9.996601738138e+005 9.999521235744e+005 1.000533735830e+006 1.000503435447e+006 1.000659693169e+006 1.000146015248e+006 1.000087763398e+006 1.000136214089e+006 1.000216448163e+006 1.000216297923e+006 1.000276301096e+006 1.000273027628e+006 1.000620497958e+006 1.000536042490e+006 1.000103841168e+006 1.000109589542e+006 1.000126991904e+006 1.000138284436e+006 1.000520597238e+006 1.000490276918e+006 
        </DataArray>
        <DataArray type="Float64" Name="MEAN_PRESSURE" format="ascii">