<?xml version="1.0"?>
<VTKFile type="UnstructuredGrid" version="0.1" byte_order="LittleEndian">
  <UnstructuredGrid>
    <Piece NumberOfPoints="963" NumberOfCells="1758">
      <Points>
        <DataArray type="Float64" NumberOfComponents="3" format="ascii">
          1.600262034769e+002 1.257989505921e+001 0.000000000000e+000
          1.635346199106e+002 2.000000000000e+001 0.000000000000e+000
          1.554515002484e+002 2.000000000000e+001 0.000000000000e+000
          3.459306441575e+000 1.667621982453e+001 0.000000000000e+000
          3.062266634850e+000 1.705413688405e+001 0.000000000000e+000
          2.873380769063e+000 1.650527725632e+001 0.000000000000e+000
          1.514088444034e+000 1.865189448105e+001 0.000000000000e+000
          1.967902677551e+000 1.834103489750e+001 0.000000000000e+000
          2.034564522234e+000 1.890806711991e+001 0.000000000000e+000
          2.478275273162e+000 1.702762299110e+001 0.000000000000e+000
          2.952621433467e+000 1.774357373580e+001 0.000000000000e+000
          2.237893542067e+000 1.782457469610e+001 0.000000000000e+000
          3.313583922780e+000 3.274674552047e+000 0.000000000000e+000
          2.561432712787e+000 3.156040447793e+000 0.000000000000e+000
          3.047531989640e+000 2.714594415171e+000 0.000000000000e+000
          2.750804692284e+000 3.936058190693e+000 0.000000000000e+000
          2.599039179818e+000 2.451529939148e+000 0.000000000000e+000
          3.139686649742e+000 2.186924052088e+000 0.000000000000e+000
          1.919984553221e+000 3.358010194268e+000 0.000000000000e+000
          1.960900304591e+000 2.773319745251e+000 0.000000000000e+000
          1.894565400391e+000 1.733316857565e+001 0.000000000000e+000
          0.000000000000e+000 1.538461538461e+001 0.000000000000e+000
          5.816229249735e-001 1.567919247147e+001 0.000000000000e+000
          0.000000000000e+000 1.589743589743e+001 0.000000000000e+000
          9.766405669483e+001 2.000000000000e+001 0.000000000000e+000
          1.010672711393e+002 1.500000000000e+001 0.000000000000e+000
          1.029329279907e+002 2.000000000000e+001 0.000000000000e+000
          9.588503785413e+001 1.500000000000e+001 0.000000000000e+000
          1.039231647117e+002 1.000000000000e+001 0.000000000000e+000
          9.860830811271e+001 1.000000000000e+001 0.000000000000e+000
          1.010672711397e+002 5.000000000000e+000 0.000000000000e+000
          9.766405669557e+001 0.000000000000e+000 0.000000000000e+000
          1.029329279915e+002 0.000000000000e+000 0.000000000000e+000
          9.588503785449e+001 5.000000000000e+000 0.000000000000e+000
          7.892434178002e+001 2.000000000000e+001 0.000000000000e+000
          8.173808356948e+001 1.500000000000e+001 0.000000000000e+000
          8.328058896910e+001 2.000000000000e+001 0.000000000000e+000
          7.679274808893e+001 1.514423393202e+001 0.000000000000e+000
          7.970503892166e+001 1.000000000000e+001 0.000000000000e+000
          8.409930620613e+001 1.000000000000e+001 0.000000000000e+000
          8.173808356980e+001 5.000000000000e+000 0.000000000000e+000
          7.892434178065e+001 0.000000000000e+000 0.000000000000e+000
          8.328058896976e+001 0.000000000000e+000 0.000000000000e+000
          7.679274808925e+001 4.855766067979e+000 0.000000000000e+000
          1.084583939765e+002 2.000000000000e+001 0.000000000000e+000
          1.122011528880e+002 1.500000000000e+001 0.000000000000e+000
          1.142529496098e+002 2.000000000000e+001 0.000000000000e+000
          1.065018792644e+002 1.500000000000e+001 0.000000000000e+000
          1.153419838410e+002 1.000000000000e+001 0.000000000000e+000
          1.094968549120e+002 1.000000000000e+001 0.000000000000e+000
          1.122011528884e+002 5.000000000000e+000 0.000000000000e+000
          1.084583939773e+002 0.000000000000e+000 0.000000000000e+000
          1.142529496106e+002 0.000000000000e+000 0.000000000000e+000
          1.065018792648e+002 5.000000000000e+000 0.000000000000e+000
          1.181779812237e+002 1.500000000000e+001 0.000000000000e+000
          1.203297004775e+002 2.000000000000e+001 0.000000000000e+000
          1.214717707847e+002 1.000000000000e+001 0.000000000000e+000
          1.181779812242e+002 5.000000000000e+000 0.000000000000e+000
          1.203297004784e+002 0.000000000000e+000 0.000000000000e+000
          7.477039199538e+001 2.000000000000e+001 0.000000000000e+000
          7.551483469771e+001 1.000000000000e+001 0.000000000000e+000
          7.296959467356e+001 1.385646386579e+001 0.000000000000e+000
          7.477039199599e+001 0.000000000000e+000 0.000000000000e+000
          7.296959467379e+001 6.143536134207e+000 0.000000000000e+000
          6.918477198508e+001 1.366665532880e+001 0.000000000000e+000
          6.746477463053e+001 1.000000000000e+001 0.000000000000e+000
          7.151921701478e+001 1.000000000000e+001 0.000000000000e+000
          6.918477198529e+001 6.333344671202e+000 0.000000000000e+000
          9.263986346551e+001 2.000000000000e+001 0.000000000000e+000
          9.094345943471e+001 1.500000000000e+001 0.000000000000e+000
          9.354026529380e+001 1.000000000000e+001 0.000000000000e+000
          9.263986346623e+001 0.000000000000e+000 0.000000000000e+000
          9.094345943506e+001 5.000000000000e+000 0.000000000000e+000
          1.244344522558e+002 1.503312574389e+001 0.000000000000e+000
          1.267023895482e+002 2.000000000000e+001 0.000000000000e+000
          1.285510028831e+002 1.020485663255e+001 0.000000000000e+000
          1.244344522563e+002 5.033125743893e+000 0.000000000000e+000
          1.267023895491e+002 0.000000000000e+000 0.000000000000e+000
          8.623136018348e+001 1.500000000000e+001 0.000000000000e+000
          8.784898578901e+001 2.000000000000e+001 0.000000000000e+000
          8.870757443665e+001 1.000000000000e+001 0.000000000000e+000
          8.623136018382e+001 5.000000000000e+000 0.000000000000e+000
          8.784898578969e+001 0.000000000000e+000 0.000000000000e+000
          4.872472752737e+000 0.000000000000e+000 0.000000000000e+000
          4.204479229380e+000 6.412840757122e-001 0.000000000000e+000
          4.157376851380e+000 0.000000000000e+000 0.000000000000e+000
          5.192892237051e+000 7.280355562789e-001 0.000000000000e+000
          1.306630304579e+000 6.212843344151e-001 0.000000000000e+000
          1.050228457081e+000 0.000000000000e+000 0.000000000000e+000
          1.614006202528e+000 0.000000000000e+000 0.000000000000e+000
          1.266763055794e+001 1.554696422866e+001 0.000000000000e+000
          1.263589100638e+001 1.657720348306e+001 0.000000000000e+000
          1.174268578662e+001 1.633018318031e+001 0.000000000000e+000
          6.588835695415e+000 7.505681085529e+000 0.000000000000e+000
          6.456871838389e+000 6.658671683861e+000 0.000000000000e+000
          7.208099140752e+000 7.038822846307e+000 0.000000000000e+000
          4.412623338166e+000 9.138856431549e+000 0.000000000000e+000
          4.024185797397e+000 8.708923235630e+000 0.000000000000e+000
          4.601447447338e+000 8.507292699647e+000 0.000000000000e+000
          5.325995059827e-001 6.308307298123e+000 0.000000000000e+000
          0.000000000000e+000 6.666666666655e+000 0.000000000000e+000
          0.000000000000e+000 6.153846153835e+000 0.000000000000e+000
          3.986461521768e+000 8.146114708182e+000 0.000000000000e+000
          2.411603373059e+000 6.510912162016e+000 0.000000000000e+000
          1.807525763324e+000 6.938080373464e+000 0.000000000000e+000
          1.686779352680e+000 6.178928843543e+000 0.000000000000e+000
          2.510760620997e+000 7.229076682239e+000 0.000000000000e+000
          3.166991983438e+000 6.906135870389e+000 0.000000000000e+000
          3.452788915829e+000 6.276851216781e+000 0.000000000000e+000
          3.340122000742e+000 5.656365440432e+000 0.000000000000e+000
          4.047936562877e+000 5.873561587395e+000 0.000000000000e+000
          1.802463974828e+000 1.292744708026e+001 0.000000000000e+000
          1.383967161336e+000 1.330299552906e+001 0.000000000000e+000
          1.329690820161e+000 1.266495373033e+001 0.000000000000e+000
          2.267922292389e+000 1.431116835808e+001 0.000000000000e+000
          2.854613987538e+000 1.466581611369e+001 0.000000000000e+000
          2.339869278674e+000 1.493776402241e+001 0.000000000000e+000
          4.690956878046e+000 3.115726773737e+000 0.000000000000e+000
          4.014773718330e+000 2.850429494150e+000 0.000000000000e+000
          4.643493383296e+000 2.293565471327e+000 0.000000000000e+000
          5.186083944243e+000 1.661927139510e+000 0.000000000000e+000
          5.452965511439e+000 2.679881546544e+000 0.000000000000e+000
          5.360460104304e+000 3.539902157655e+000 0.000000000000e+000
          6.197986304192e+000 3.115706366113e+000 0.000000000000e+000
          7.929356606585e-001 1.634705420870e+001 0.000000000000e+000
          1.222819867503e+000 1.599517159419e+001 0.000000000000e+000
          1.215723647926e+000 1.546209040954e+001 0.000000000000e+000
          1.770601276021e+000 1.521217632514e+001 0.000000000000e+000
          1.242830150061e+000 1.493919370237e+001 0.000000000000e+000
          1.166444124506e+000 4.610115997312e+000 0.000000000000e+000
          1.851620547934e+000 4.486892013458e+000 0.000000000000e+000
          1.494152702314e+000 5.145235789232e+000 0.000000000000e+000
          1.353088107040e+000 4.090803091641e+000 0.000000000000e+000
          3.802567455935e+000 5.084697985980e+000 0.000000000000e+000
          1.014840185783e+000 5.494768572296e+000 0.000000000000e+000
          8.831064584820e-001 5.109311190608e+000 0.000000000000e+000
          1.727903958959e+000 1.618384478933e+001 0.000000000000e+000
          1.343261525342e+000 1.651800241408e+001 0.000000000000e+000
          3.308120627291e+000 8.593311644828e+000 0.000000000000e+000
[...]
      <PointData Scalars="LIQUID_PRESSURE">
        <DataArray type="Float64" Name="LIQUID_PRESSURE" format="ascii">
          1.034180006679e+006 1.031179684364e+006 1.038092209261e+006 1.146397397632e+006 1.146406649138e+006 1.146472555029e+006 1.146571185174e+006 1.146915657919e+006 1.146938903809e+006 1.146805379877e+006 1.146421536895e+006 1.146908410735e+006 1.146320410476e+006 1.146727337642e+006 1.146385286070e+006 1.146549678928e+006 1.146701186784e+006 1.146339384255e+006 1.146911061995e+006 1.146948058781e+006 1.146863698376e+006 1.146461759752e+006 1.146221885019e+006 1.146451224252e+006 1.088033902249e+006 1.084687375331e+006 1.083010282292e+006 1.090088047409e+006 1.082149885469e+006 1.087124042027e+006 1.084687484735e+006 1.088034098819e+006 1.083010494219e+006 1.090088166158e+006 1.108445132151e+006 1.105483256372e+006 1.103707924766e+006 1.110384698864e+006 1.107448471071e+006 1.103192012046e+006 1.105482858327e+006 1.108443717358e+006 1.103707710746e+006 1.110382882869e+006 1.078295183452e+006 1.075092472985e+006 1.073336233356e+006 1.079975769491e+006 1.072403733182e+006 1.077403496077e+006 1.075092403975e+006 1.078295226033e+006 1.073336091110e+006 1.079975855324e+006 1.069977233009e+006 1.068136054810e+006 1.067158695165e+006 1.069977179914e+006 1.068135960672e+006 1.112393667573e+006 1.111196297683e+006 1.113677259024e+006 1.112389604020e+006 1.113673035859e+006 1.116874614328e+006 1.119135740507e+006 1.115237398455e+006 1.116873746110e+006 1.093973149919e+006 1.095814938931e+006 1.092874799280e+006 1.093973281711e+006 1.095815002506e+006 1.064623857920e+006 1.062683472042e+006 1.061101853515e+006 1.064623777795e+006 1.062683418876e+006 1.101237852424e+006 1.098863389408e+006 1.098983120185e+006 1.101237900098e+006 1.098863448207e+006 1.146446315735e+006 1.146769895849e+006 1.146720027958e+006 1.146229541554e+006 1.146393134142e+006 1.146219484482e+006 1.146705934575e+006 1.145578037789e+006 1.145501934354e+006 1.145633356034e+006 1.146535686945e+006 1.146563487538e+006 1.146120375922e+006 1.146676475228e+006 1.146670367077e+006 1.146564828540e+006 1.146180676542e+006 1.146364075714e+006 1.146346966705e+006 1.146655216510e+006 1.146790243580e+006 1.146800125905e+006 1.146742641889e+006 1.146698536719e+006 1.146342548708e+006 1.146404752917e+006 1.146335362824e+006 1.146695501957e+006 1.146783511786e+006 1.146440407264e+006 1.146392233709e+006 1.146868076069e+006 1.146453202132e+006 1.146825591086e+006 1.146471079588e+006 1.146637441112e+006 1.146523662806e+006 1.146209179327e+006 1.146148090336e+006 1.146130932156e+006 1.146479158154e+006 1.146169043435e+006 1.146261705261e+006 1.146270539864e+006 1.146766408942e+006 1.146297449255e+006 1.146254286810e+006 1.146853748759e+006 1.146553178515e+006 1.146393494523e+006 1.146546471808e+006 1.146183302485e+006 1.146144972378e+006 1.146705810414e+006 1.146353049627e+006 1.146355906192e+006 1.146607710796e+006 1.146344469184e+006 1.146180492706e+006 1.146180715904e+006 1.146346800245e+006 1.146193181970e+006 1.146171336653e+006 1.146460218600e+006 1.146393293595e+006 1.146188767947e+006 1.146460478570e+006 1.146696248865e+006 1.146354241332e+006 1.146453474157e+006 1.146323731930e+006 1.146703308812e+006 1.146939590296e+006 1.146660942251e+006 1.146448399138e+006 1.146271440211e+006 1.146236401862e+006 1.146405135593e+006 1.146525115159e+006 1.146429359640e+006 1.146162064545e+006 1.146131523073e+006 1.146727019909e+006 1.146436568417e+006 1.146345151238e+006 1.146434014228e+006 1.146850370944e+006 1.146592036011e+006 1.146768575134e+006 1.146520877220e+006 1.146216904702e+006 1.146624771450e+006 1.146384196609e+006 1.146561296621e+006 1.146315114296e+006 1.146396714211e+006 1.146176702863e+006 1.146849464929e+006 1.146805648248e+006 1.146414157162e+006 1.146811517965e+006 1.146160802396e+006 1.146192984396e+006 1.146354131079e+006 1.146400790321e+006 1.146761671517e+006 1.146893398967e+006 1.146409033524e+006 1.146396910375e+006 1.146879836274e+006 1.146883107037e+006 1.146139948986e+006 1.146841441831e+006 1.146522350348e+006 1.146736987782e+006 1.146425811481e+006 1.146424358886e+006 1.146722001758e+006 1.146934514272e+006 1.146746522049e+006 1.146302096695e+006 1.146158841290e+006 1.146316940075e+006 1.146658134192e+006 1.146349165751e+006 1.146350315328e+006 1.146431738445e+006 1.146178875423e+006 1.146634930987e+006 1.146917252561e+006 1.120853815797e+006 1.120873972387e+006 1.146650475166e+006 1.146885152386e+006 1.146105010452e+006 1.146214363879e+006 1.146033325370e+006 1.146286057747e+006 1.146558021228e+006 1.146724364409e+006 1.146202236233e+006 1.146567310766e+006 1.146166016770e+006 1.146814872369e+006 1.146738411984e+006 1.146200256925e+006 1.146904739203e+006 1.146240416756e+006 1.146287042157e+006 1.146561391696e+006 1.146418608984e+006 1.146173347734e+006 1.146510898563e+006 1.146821729684e+006 1.146833942789e+006 1.146316281402e+006 1.146945506587e+006 1.146666614465e+006 1.146180519409e+006 1.146200240964e+006 1.146384845449e+006 1.146400120247e+006 1.146385422697e+006 1.146383293183e+006 1.146223053544e+006 1.146322668267e+006 1.146239879239e+006 1.146181157964e+006 1.146170071412e+006 1.146344321180e+006 1.146404173851e+006 1.146470750324e+006 1.146476594472e+006 1.146302039486e+006 1.146438750524e+006 1.146270354068e+006 1.146413776078e+006 1.146365703013e+006 1.146472841455e+006 1.146473460221e+006 1.124582753897e+006 1.122532744501e+006 1.122297012252e+006 1.125682971078e+006 1.121973311363e+006 1.124286827314e+006 1.122399509010e+006 1.124593071023e+006 1.122233107583e+006 1.125698913599e+006 1.121982706795e+006 1.124292710367e+006 1.129104869263e+006 1.127585443228e+006 1.126848184579e+006 1.130200245356e+006 1.127002581960e+006 1.128767504374e+006 1.127583563484e+006 1.129104479564e+006 1.126855242120e+006 1.130205068417e+006 1.127006680450e+006 1.128769133840e+006 1.138928770177e+006 1.138393653380e+006 1.137867829325e+006 1.139364188207e+006 1.137819491193e+006 1.138848112159e+006 1.138393547967e+006 1.138928627141e+006 1.137867733334e+006 1.139363978931e+006 1.137819420849e+006 1.138847977526e+006 1.136763822224e+006 1.136252317021e+006 1.135552506441e+006 1.137360908152e+006 1.135353483532e+006 1.136695267414e+006 1.136252346653e+006 1.136763913057e+006 1.135552545883e+006 1.137360840069e+006 1.135353517744e+006 1.136695242265e+006 1.141372023030e+006 1.140956042212e+006 1.140461045534e+006 1.141590509912e+006 1.140955205980e+006 1.141371526763e+006 1.140460413398e+006 1.141589662015e+006 1.134426982952e+006 1.133103299124e+006 1.132724666067e+006 1.134560306777e+006 1.132710856140e+006 1.134314771848e+006 1.133104278698e+006 1.134427312421e+006 1.132726821903e+006 1.134560478227e+006 1.132712374824e+006 1.134315018759e+006 1.130795433057e+006 1.131308781450e+006 1.130814399900e+006 1.130801552541e+006 1.131312930841e+006 1.130818859006e+006 1.139891121368e+006 1.140390377783e+006 1.139711038817e+006 1.139890824535e+006 1.140389825490e+006 1.139710604779e+006 1.140317930357e+006 1.140316735004e+006 1.130132901575e+006 1.131319483995e+006 1.129206541919e+006 1.131886783456e+006 1.130135769969e+006 1.131888128853e+006 1.137542611485e+006 1.138078431093e+006 1.137032040809e+006 1.138539680678e+006 1.137542576230e+006 1.138539620154e+006 1.128171398303e+006 1.127690229019e+006 1.128171433262e+006 1.141183764523e+006 1.141436880316e+006 1.141439327240e+006 1.141185199377e+006 1.133057693446e+006 1.133437429191e+006 1.133437807319e+006 1.136312692901e+006 1.135819265119e+006 1.136312701829e+006 1.135108045521e+006 1.134571681569e+006 1.135108073305e+006 1.140271871682e+006 1.140272181348e+006 1.139065671884e+006 1.139546656834e+006 1.139546542197e+006 1.126011742018e+006 1.124458391791e+006 1.126013905846e+006 1.140093369678e+006 1.122851722468e+006 1.121840743050e+006 1.122865067975e+006 1.119116998927e+006 1.119033613472e+006 1.119027011102e+006 1.118975781925e+006 1.146002846407e+006 1.146032548959e+006 1.146148802065e+006 1.146162344310e+006 1.146490064279e+006 1.146635440466e+006 1.146901838506e+006 1.146508227920e+006 1.146902935977e+006 1.146471371391e+006 1.146299814490e+006 1.146710153714e+006 1.146227759112e+006 1.146280402929e+006 1.040703963602e+006 1.044684370236e+006 1.038092302777e+006 1.146517561528e+006 1.146111804279e+006 1.146335224875e+006 1.146505900804e+006 1.146613602702e+006 1.146722563696e+006 1.146190904013e+006 1.146658231193e+006 1.146661504838e+006 1.146885822126e+006 1.146756001310e+006 1.146062804506e+006 1.146097356751e+006 1.146147821746e+006 1.146870751114e+006 1.146427467831e+006 1.146382612845e+006 1.146223058938e+006 1.146393148199e+006 1.146088889172e+006 1.146043674261e+006 1.146050098108e+006 1.146324147875e+006 1.146096020542e+006 1.146496796537e+006 1.146234598695e+006 1.146038657558e+006 1.146279666211e+006 1.146207984568e+006 1.146142998123e+006 1.146703377012e+006 1.146604226912e+006 1.146402359796e+006 1.146249951240e+006 1.146227326681e+006 1.145896105801e+006 1.145731199986e+006 1.146470478983e+006 1.146504394913e+006 1.145747372601e+006 1.145634227779e+006 1.145910626742e+006 1.146297323615e+006 1.146484747527e+006 1.145652433113e+006 1.145899501625e+006 1.145575197633e+006 1.146712267867e+006 1.146185202453e+006 1.146406554113e+006 1.145323864721e+006 1.145423115540e+006 1.146708474051e+006 1.146286739099e+006 1.146064318743e+006 1.146470920848e+006 1.145958425649e+006 1.145960313624e+006 1.146203861741e+006 1.146227900170e+006 1.146221284792e+006 1.145813222612e+006 1.145815240412e+006 1.145714452170e+006 1.145453560966e+006 1.145612411150e+006 1.146055166308e+006 1.145690157410e+006 1.145565326150e+006 1.145640091497e+006 1.145624047407e+006 1.146773854107e+006 1.146712370311e+006 1.145777109189e+006 1.145848246051e+006 1.146169321693e+006 1.146362791857e+006 1.146420184484e+006 1.146613862403e+006 1.146179416382e+006 1.146159370301e+006 1.146626315368e+006 1.146902691670e+006 1.146399360778e+006 1.146173212658e+006 1.146241235329e+006 1.146171539935e+006 1.145935231993e+006 1.146039032427e+006 1.146203091793e+006 1.145882135328e+006 1.146160395284e+006 1.146430523370e+006 1.146422731652e+006 1.146165165766e+006 1.146068944591e+006 1.146419036446e+006 1.146467937460e+006 1.146328815047e+006 1.146135597542e+006 1.145801091367e+006 1.145836186197e+006 1.145915766209e+006 1.146766474470e+006 1.146526135277e+006 1.146115687317e+006 1.146143891225e+006 1.146573273570e+006 1.145919382303e+006 1.145923455107e+006 1.146153377061e+006 1.146203455648e+006 1.146629410388e+006 1.146296839865e+006 1.146653053132e+006 1.146421776591e+006 1.146487925364e+006 1.146008433452e+006 1.146278732333e+006 1.146885454215e+006 1.146364287430e+006 1.146370926226e+006 1.146726179221e+006 1.146146168150e+006 1.146086927939e+006 1.146113900371e+006 1.146483105409e+006 1.146303814842e+006 1.146745208204e+006 1.146807324365e+006 1.145846562390e+006 1.145918681015e+006 1.146088905706e+006 1.145849007937e+006 1.146326468942e+006 1.145874437935e+006 1.145453019884e+006 1.145558106995e+006 1.146258544673e+006 1.146752791349e+006 1.146927557314e+006 1.145915713335e+006 1.145735955924e+006 1.145759992378e+006 1.145945075696e+006 1.145940049433e+006 1.145946839013e+006 1.146914837252e+006 1.146855639157e+006 1.146542486441e+006 1.145921153636e+006 1.145952941904e+006 1.146452706793e+006 1.146450061198e+006 1.146432472865e+006 1.145812381623e+006 1.145867616046e+006 1.145729347974e+006 1.146917478901e+006 1.146188573053e+006 1.146375502871e+006 1.146667418368e+006 1.146533653974e+006 1.145765645140e+006 1.146121388786e+006 1.146189291109e+006 1.146210429034e+006 1.146169695276e+006 1.146243066410e+006 1.145942754550e+006 1.146124582756e+006 1.146539056252e+006 1.146099867593e+006 1.146624867220e+006 1.145801784318e+006 1.146083298156e+006 1.146794849751e+006 1.146461960116e+006 1.146863671224e+006 1.146049338994e+006 1.145910999073e+006 1.146475777307e+006 1.146331874708e+006 1.146211376327e+006 1.145662435255e+006 1.146001209294e+006 1.146335599950e+006 1.146189656563e+006 1.146289452229e+006 1.145739812725e+006 1.145730669240e+006 1.145926680358e+006 1.023931150663e+006 1.020941165640e+006 1.016329925433e+006 1.146091356472e+006 1.146220378616e+006 1.146800186578e+006 1.146672811701e+006 1.146411372548e+006 1.146594778745e+006 1.146111489937e+006 1.146395935893e+006 1.146520311293e+006 1.146256941885e+006 1.116629700279e+006 1.116634086620e+006 1.146217640341e+006 1.146385032622e+006 1.146652956978e+006 1.146292191579e+006 1.146051095029e+006 1.146203481199e+006 1.146155998408e+006 1.146191876382e+006 1.146367707181e+006 1.146574705205e+006 1.145898142796e+006 1.145865626459e+006 1.146077085108e+006 1.033966937019e+006 1.031179839137e+006 1.146649984415e+006 1.146177577736e+006 1.146220511162e+006 1.146418581941e+006 1.146033473970e+006 1.146177280630e+006 1.142070742100e+006 1.141947459241e+006 1.142066862467e+006 1.141947859356e+006 1.146383083291e+006 1.146169691292e+006 1.145985582744e+006 1.146183408966e+006 1.141521781418e+006 1.141461096554e+006 1.141123361823e+006 1.141458109743e+006 1.145904066502e+006 1.145603741519e+006 1.146511044934e+006 1.145889659012e+006 1.146551429898e+006 1.146366123408e+006 1.146742217393e+006 1.146695645958e+006 1.146200341775e+006 1.146130173346e+006 1.146895294436e+006 1.146281815835e+006 1.145540996344e+006 1.145867625688e+006 1.028346542964e+006 1.023931153645e+006 1.146337088864e+006 1.146931853461e+006 1.146676221537e+006 1.146724387842e+006 1.146266272879e+006 1.146300040986e+006 1.145995885123e+006 1.115505030382e+006 1.115500007257e+006 1.145610468140e+006 1.146432962813e+006 1.145135138902e+006 1.145326426763e+006 1.145179535789e+006 1.145932911815e+006 1.146716813275e+006 1.146641101966e+006 1.145421059735e+006 1.009895393973e+006 1.008358910864e+006 1.145607532648e+006 1.146379641052e+006 1.146377471739e+006 1.145598382415e+006 1.146396737842e+006 1.146354713206e+006 1.146455090573e+006 1.145710043184e+006 1.142420756960e+006 1.142133264759e+006 1.141973932022e+006 1.142948628030e+006 1.142744185209e+006 1.142117348576e+006 1.142968001172e+006 1.142714619484e+006 1.143075311000e+006 1.143304094900e+006 1.143066041507e+006 1.143332026382e+006 1.143182218905e+006 1.143471900013e+006 1.143596414329e+006 1.143615394250e+006 1.143609771715e+006 1.143618160651e+006 1.143787429751e+006 1.144067323676e+006 1.144022942535e+006 1.144068840324e+006 1.144030149568e+006 1.144198468418e+006 1.144388133343e+006 1.144220415585e+006 1.144385012410e+006 1.144216132402e+006 1.144739387196e+006 1.144766299177e+006 1.144693837884e+006 1.144759019346e+006 1.144683509185e+006 1.142350712023e+006 1.142350378802e+006 1.142706587835e+006 1.142868990079e+006 1.142346798145e+006 1.142348689879e+006 1.142692183986e+006 1.142856046819e+006 1.143327957408e+006 1.143554488780e+006 1.143343806225e+006 1.143554590657e+006 1.143705205734e+006 1.143835982087e+006 1.143710752387e+006 1.143845169434e+006 1.144128501597e+006 1.144234658666e+006 1.144132748225e+006 1.144231002237e+006 1.143662444725e+006 1.143870129506e+006 1.143497322255e+006 1.144174563116e+006 1.143376441992e+006 1.143965649408e+006 1.143864867382e+006 1.143658549391e+006 1.143494589472e+006 1.144169336573e+006 1.143374670059e+006 1.143963080197e+006 1.144185821896e+006 1.144364579192e+006 1.144257326845e+006 1.144178785986e+006 1.144356965766e+006 1.144251504404e+006 1.144712649420e+006 1.144734589644e+006 1.144628524684e+006 1.144709403723e+006 1.144743980680e+006 1.144625587523e+006 1.144702983628e+006 1.144947119821e+006 1.144644637989e+006 1.144728326346e+006 1.145009093971e+006 1.144695192074e+006 1.145134047727e+006 1.145052860781e+006 1.145165211416e+006 1.145095041428e+006 1.144365051319e+006 1.144669186619e+006 1.144370516973e+006 1.144653936768e+006 1.142543839028e+006 1.142081592796e+006 1.142311907698e+006 1.142540101761e+006 1.142082310361e+006 1.142311713040e+006 1.142983482670e+006 1.142897740448e+006 1.142974631361e+006 1.142898602519e+006 1.143677622145e+006 1.143675280199e+006 1.144085239159e+006 1.144079269212e+006 1.144177451986e+006 1.144160832735e+006 1.145769190281e+006 1.146087899504e+006 1.145781426744e+006 1.146230932587e+006 1.144692257397e+006 1.144678078764e+006 1.145205245887e+006 1.145225187921e+006 1.144848584509e+006 1.145135283327e+006 1.144849072450e+006 1.145097773178e+006 1.144812118197e+006 1.144763128103e+006 1.144730802007e+006 1.144758011320e+006 1.144708912780e+006 1.144799767040e+006 1.145983525102e+006 1.144874251038e+006 1.145782891951e+006 1.146106642855e+006 1.145591702510e+006 1.145662790325e+006 1.145121052951e+006 1.145253825309e+006 1.145160077966e+006 1.145144793783e+006 1.145172789423e+006 1.145127061459e+006 1.145221642325e+006 1.145052253875e+006 1.145177504444e+006 1.145254052197e+006 1.145180820724e+006 1.145290076905e+006 1.145205978932e+006 1.145170786740e+006 1.145631880126e+006 1.146411637644e+006 1.145822117879e+006 1.145604363197e+006 1.146323413593e+006 1.146186024408e+006 1.145581941236e+006 1.000000000000e+006 1.000000000000e+006 1.008358906673e+006 1.146246196509e+006 1.146553386195e+006 1.146333480599e+006 1.146489352428e+006 1.146387936754e+006 1.146437109257e+006 1.146376509659e+006 1.146367259415e+006 1.146368691739e+006 1.146112818126e+006 1.145522341251e+006 1.145494072565e+006 1.146442816453e+006 1.146312736908e+006 1.145550846586e+006 1.145616747073e+006 1.146476949005e+006 1.145604073476e+006 1.145476236290e+006 1.145796265281e+006 1.145930221109e+006 1.145174612307e+006 1.146337093507e+006 1.113737231060e+006 1.113743394279e+006 1.146741708963e+006 1.140824064191e+006 1.140824690766e+006 1.145299898513e+006 1.146278032824e+006 1.146410685134e+006 1.145223029353e+006 1.146277600243e+006 1.146141862153e+006 1.146570963792e+006 1.145214793403e+006 1.145139842225e+006 1.145226792738e+006 1.146072678381e+006 1.049346623662e+006 1.046532980731e+006 1.146253729499e+006 1.145796006779e+006 1.050970887346e+006 1.146363590182e+006 1.146178535338e+006 1.146363237223e+006 1.145423617919e+006 1.146181448623e+006 1.016329900460e+006 1.146748904653e+006 1.146705033512e+006 1.146225773287e+006 1.145495073258e+006 1.146660535579e+006 1.142022968167e+006 1.142021761462e+006 1.146735356890e+006 1.146241356243e+006 1.145930774109e+006 1.146555933891e+006 1.146623626652e+006 1.146308281022e+006 1.146407627506e+006 1.146525299913e+006 1.146423836984e+006 1.146138190937e+006 1.146053813611e+006 1.146235795598e+006 1.146368956522e+006 1.146437163052e+006 1.146389689315e+006 1.146024337794e+006 1.145806784211e+006 1.146387241177e+006 1.145446683401e+006 1.054502491413e+006 1.145575555783e+006 1.027551545677e+006 1.145270272496e+006 1.146151883589e+006 1.145551565545e+006 1.146406799284e+006 1.145573689814e+006 1.146479422123e+006 1.145080996697e+006 1.146517102745e+006 1.146528432490e+006 1.146383582428e+006 1.146419515835e+006 1.146410574848e+006 1.146379972748e+006 1.050970956212e+006 1.056966077653e+006 1.044684366145e+006 1.059975428950e+006 1.146329128403e+006 1.057170441040e+006 1.040838558883e+006 1.146162675208e+006 1.146310270507e+006 1.146377722217e+006 1.146424061482e+006 1.056966088258e+006 1.146335817046e+006 1.146336179862e+006 1.141076467199e+006 1.141077611517e+006 1.142662604131e+006 1.142661765852e+006 1.146395907383e+006 1.146301098104e+006 1.142992726250e+006 1.142987503678e+006 1.142813883379e+006 1.142829124997e+006 1.146287457783e+006 1.146345949999e+006 
        </DataArray>
        <DataArray type="Float64" Name="MEAN_PRESSURE" format="ascii">