<?xml version="1.0"?>
<VTKFile type="UnstructuredGrid" version="0.1" byte_order="LittleEndian">
  <UnstructuredGrid>
    <Piece NumberOfPoints="963" NumberOfCells="1758">
      <Points>
        <DataArray type="Float64" NumberOfComponents="3" format="ascii">
          1.600262034769e+002 1.257989505921e+001 0.000000000000e+000
          1.635346199106e+002 2.000000000000e+001 0.000000000000e+000
          1.554515002484e+002 2.000000000000e+001 0.000000000000e+000
          3.459306441575e+000 1.667621982453e+001 0.000000000000e+000
          3.062266634850e+000 1.705413688405e+001 0.000000000000e+000
          2.873380769063e+000 1.650527725632e+001 0.000000000000e+000
          1.514088444034e+000 1.865189448105e+001 0.000000000000e+000
          1.967902677551e+000 1.834103489750e+001 0.000000000000e+000
          2.034564522234e+000 1.890806711991e+001 0.000000000000e+000
          2.478275273162e+000 1.702762299110e+001 0.000000000000e+000
          2.952621433467e+000 1.774357373580e+001 0.000000000000e+000
          2.237893542067e+000 1.782457469610e+001 0.000000000000e+000
          3.313583922780e+000 3.274674552047e+000 0.000000000000e+000
          2.561432712787e+000 3.156040447793e+000 0.000000000000e+000
          3.047531989640e+000 2.714594415171e+000 0.000000000000e+000
          2.750804692284e+000 3.936058190693e+000 0.000000000000e+000
          2.599039179818e+000 2.451529939148e+000 0.000000000000e+000
          3.139686649742e+000 2.186924052088e+000 0.000000000000e+000
          1.919984553221e+000 3.358010194268e+000 0.000000000000e+000
          1.960900304591e+000 2.773319745251e+000 0.000000000000e+000
          1.894565400391e+000 1.733316857565e+001 0.000000000000e+000
          0.000000000000e+000 1.538461538461e+001 0.000000000000e+000
          5.816229249735e-001 1.567919247147e+001 0.000000000000e+000
          0.000000000000e+000 1.589743589743e+001 0.000000000000e+000
          9.766405669483e+001 2.000000000000e+001 0.000000000000e+000
          1.010672711393e+002 1.500000000000e+001 0.000000000000e+000
          1.029329279907e+002 2.000000000000e+001 0.000000000000e+000
          9.588503785413e+001 1.500000000000e+001 0.000000000000e+000
          1.039231647117e+002 1.000000000000e+001 0.000000000000e+000
          9.860830811271e+001 1.000000000000e+001 0.000000000000e+000
          1.010672711397e+002 5.000000000000e+000 0.000000000000e+000
          9.766405669557e+001 0.000000000000e+000 0.000000000000e+000
          1.029329279915e+002 0.000000000000e+000 0.000000000000e+000
          9.588503785449e+001 5.000000000000e+000 0.000000000000e+000
          7.892434178002e+001 2.000000000000e+001 0.000000000000e+000
          8.173808356948e+001 1.500000000000e+001 0.000000000000e+000
          8.328058896910e+001 2.000000000000e+001 0.000000000000e+000
          7.679274808893e+001 1.514423393202e+001 0.000000000000e+000
          7.970503892166e+001 1.000000000000e+001 0.000000000000e+000
          8.409930620613e+001 1.000000000000e+001 0.000000000000e+000
          8.173808356980e+001 5.000000000000e+000 0.000000000000e+000
          7.892434178065e+001 0.000000000000e+000 0.000000000000e+000
          8.328058896976e+001 0.000000000000e+000 0.000000000000e+000
          7.679274808925e+001 4.855766067979e+000 0.000000000000e+000
          1.084583939765e+002 2.000000000000e+001 0.000000000000e+000
          1.122011528880e+002 1.500000000000e+001 0.000000000000e+000
          1.142529496098e+002 2.000000000000e+001 0.000000000000e+000
          1.065018792644e+002 1.500000000000e+001 0.000000000000e+000
          1.153419838410e+002 1.000000000000e+001 0.000000000000e+000
          1.094968549120e+002 1.000000000000e+001 0.000000000000e+000
          1.122011528884e+002 5.000000000000e+000 0.000000000000e+000
          1.084583939773e+002 0.000000000000e+000 0.000000000000e+000
          1.142529496106e+002 0.000000000000e+000 0.000000000000e+000
          1.065018792648e+002 5.000000000000e+000 0.000000000000e+000
          1.181779812237e+002 1.500000000000e+001 0.000000000000e+000
          1.203297004775e+002 2.000000000000e+001 0.000000000000e+000
          1.214717707847e+002 1.000000000000e+001 0.000000000000e+000
          1.181779812242e+002 5.000000000000e+000 0.000000000000e+000
          1.203297004784e+002 0.000000000000e+000 0.000000000000e+000
          7.477039199538e+001 2.000000000000e+001 0.000000000000e+000
          7.551483469771e+001 1.000000000000e+001 0.000000000000e+000
          7.296959467356e+001 1.385646386579e+001 0.000000000000e+000
          7.477039199599e+001 0.000000000000e+000 0.000000000000e+000
          7.296959467379e+001 6.143536134207e+000 0.000000000000e+000
          6.918477198508e+001 1.366665532880e+001 0.000000000000e+000
          6.746477463053e+001 1.000000000000e+001 0.000000000000e+000
          7.151921701478e+001 1.000000000000e+001 0.000000000000e+000
          6.918477198529e+001 6.333344671202e+000 0.000000000000e+000
          9.263986346551e+001 2.000000000000e+001 0.000000000000e+000
          9.094345943471e+001 1.500000000000e+001 0.000000000000e+000
          9.354026529380e+001 1.000000000000e+001 0.000000000000e+000
          9.263986346623e+001 0.000000000000e+000 0.000000000000e+000
          9.094345943506e+001 5.000000000000e+000 0.000000000000e+000
          1.244344522558e+002 1.503312574389e+001 0.000000000000e+000
          1.267023895482e+002 2.000000000000e+001 0.000000000000e+000
          1.285510028831e+002 1.020485663255e+001 0.000000000000e+000
          1.244344522563e+002 5.033125743893e+000 0.000000000000e+000
          1.267023895491e+002 0.000000000000e+000 0.000000000000e+000
          8.623136018348e+001 1.500000000000e+001 0.000000000000e+000
          8.784898578901e+001 2.000000000000e+001 0.000000000000e+000
          8.870757443665e+001 1.000000000000e+001 0.000000000000e+000
          8.623136018382e+001 5.000000000000e+000 0.000000000000e+000
          8.784898578969e+001 0.000000000000e+000 0.000000000000e+000
          4.872472752737e+000 0.000000000000e+000 0.000000000000e+000
          4.204479229380e+000 6.412840757122e-001 0.000000000000e+000
          4.157376851380e+000 0.000000000000e+000 0.000000000000e+000
          5.192892237051e+000 7.280355562789e-001 0.000000000000e+000
          1.306630304579e+000 6.212843344151e-001 0.000000000000e+000
          1.050228457081e+000 0.000000000000e+000 0.000000000000e+000
          1.614006202528e+000 0.000000000000e+000 0.000000000000e+000
          1.266763055794e+001 1.554696422866e+001 0.000000000000e+000
          1.263589100638e+001 1.657720348306e+001 0.000000000000e+000
          1.174268578662e+001 1.633018318031e+001 0.000000000000e+000
          6.588835695415e+000 7.505681085529e+000 0.000000000000e+000
          6.456871838389e+000 6.658671683861e+000 0.000000000000e+000
          7.208099140752e+000 7.038822846307e+000 0.000000000000e+000
          4.412623338166e+000 9.138856431549e+000 0.000000000000e+000
          4.024185797397e+000 8.708923235630e+000 0.000000000000e+000
          4.601447447338e+000 8.507292699647e+000 0.000000000000e+000
          5.325995059827e-001 6.308307298123e+000 0.000000000000e+000
          0.000000000000e+000 6.666666666655e+000 0.000000000000e+000
          0.000000000000e+000 6.153846153835e+000 0.000000000000e+000
          3.986461521768e+000 8.146114708182e+000 0.000000000000e+000
          2.411603373059e+000 6.510912162016e+000 0.000000000000e+000
          1.807525763324e+000 6.938080373464e+000 0.000000000000e+000
          1.686779352680e+000 6.178928843543e+000 0.000000000000e+000
          2.510760620997e+000 7.229076682239e+000 0.000000000000e+000
          3.166991983438e+000 6.906135870389e+000 0.000000000000e+000
          3.452788915829e+000 6.276851216781e+000 0.000000000000e+000
          3.340122000742e+000 5.656365440432e+000 0.000000000000e+000
          4.047936562877e+000 5.873561587395e+000 0.000000000000e+000
          1.802463974828e+000 1.292744708026e+001 0.000000000000e+000
          1.383967161336e+000 1.330299552906e+001 0.000000000000e+000
          1.329690820161e+000 1.266495373033e+001 0.000000000000e+000
          2.267922292389e+000 1.431116835808e+001 0.000000000000e+000
          2.854613987538e+000 1.466581611369e+001 0.000000000000e+000
          2.339869278674e+000 1.493776402241e+001 0.000000000000e+000
          4.690956878046e+000 3.115726773737e+000 0.000000000000e+000
          4.014773718330e+000 2.850429494150e+000 0.000000000000e+000
          4.643493383296e+000 2.293565471327e+000 0.000000000000e+000
          5.186083944243e+000 1.661927139510e+000 0.000000000000e+000
          5.452965511439e+000 2.679881546544e+000 0.000000000000e+000
          5.360460104304e+000 3.539902157655e+000 0.000000000000e+000
          6.197986304192e+000 3.115706366113e+000 0.000000000000e+000
          7.929356606585e-001 1.634705420870e+001 0.000000000000e+000
          1.222819867503e+000 1.599517159419e+001 0.000000000000e+000
          1.215723647926e+000 1.546209040954e+001 0.000000000000e+000
          1.770601276021e+000 1.521217632514e+001 0.000000000000e+000
          1.242830150061e+000 1.493919370237e+001 0.000000000000e+000
          1.166444124506e+000 4.610115997312e+000 0.000000000000e+000
          1.851620547934e+000 4.486892013458e+000 0.000000000000e+000
          1.494152702314e+000 5.145235789232e+000 0.000000000000e+000
          1.353088107040e+000 4.090803091641e+000 0.000000000000e+000
          3.802567455935e+000 5.084697985980e+000 0.000000000000e+000
          1.014840185783e+000 5.494768572296e+000 0.000000000000e+000
          8.831064584820e-001 5.109311190608e+000 0.000000000000e+000
          1.727903958959e+000 1.618384478933e+001 0.000000000000e+000
          1.343261525342e+000 1.651800241408e+001 0.000000000000e+000
          3.308120627291e+000 8.593311644828e+000 0.000000000000e+000
[...]
      <PointData Scalars="LIQUID_PRESSURE">
        <DataArray type="Float64" Name="LIQUID_PRESSURE" format="ascii">
          9.926412719986e+005 9.983457012937e+005 9.972633927785e+005 1.001396960714e+006 1.001561182908e+006 1.001777200346e+006 1.001722057733e+006 1.002400078019e+006 1.002457520599e+006 1.002417572087e+006 1.001662079046e+006 1.002496025463e+006 1.001313740485e+006 1.002247780442e+006 1.001535436790e+006 1.001880608242e+006 1.002228151286e+006 1.001397949593e+006 1.002369668572e+006 1.002451839967e+006 1.002265775185e+006 1.002311357771e+006 1.001817205975e+006 1.002300196747e+006 1.001248158096e+006 1.001221197996e+006 1.001185808749e+006 1.001250196615e+006 1.001172189953e+006 1.001240817028e+006 1.001220788057e+006 1.001247853556e+006 1.001186672063e+006 1.001250319267e+006 1.001480038942e+006 1.001420352224e+006 1.001416562859e+006 1.001490159392e+006 1.001490675749e+006 1.001386123252e+006 1.001420444754e+006 1.001479813669e+006 1.001416636957e+006 1.001489471164e+006 1.001131520822e+006 1.001078039207e+006 1.001050266927e+006 1.001134693518e+006 1.001034006086e+006 1.001121318119e+006 1.001079967639e+006 1.001129294907e+006 1.001053851543e+006 1.001134931423e+006 1.001034453456e+006 1.000960010101e+006 1.000951917448e+006 1.001027908259e+006 1.000964361677e+006 1.001521668636e+006 1.001477465811e+006 1.001506663668e+006 1.001522346292e+006 1.001508658924e+006 1.001476393138e+006 1.001552929236e+006 1.001623990942e+006 1.001475557716e+006 1.001353161693e+006 1.001319745281e+006 1.001330893280e+006 1.001353167886e+006 1.001319676467e+006 1.000900289693e+006 1.000894436305e+006 1.000879860640e+006 1.000923353375e+006 1.000906707678e+006 1.001428673498e+006 1.001331359716e+006 1.001341465593e+006 1.001428675773e+006 1.001331320945e+006 1.002068371654e+006 1.002325870901e+006 1.002192127185e+006 1.001583690415e+006 1.001448965594e+006 1.001335271188e+006 1.001936943732e+006 1.001935714938e+006 1.001717820645e+006 1.001804261449e+006 1.002457500557e+006 1.002420001196e+006 1.001813248524e+006 1.002412898999e+006 1.002110069253e+006 1.002221642692e+006 1.001821822053e+006 1.002339813321e+006 1.002298282318e+006 1.002074883758e+006 1.002387629445e+006 1.002204360877e+006 1.002056591655e+006 1.002217459114e+006 1.001345120505e+006 1.001387342397e+006 1.001321736747e+006 1.002199629847e+006 1.002152042637e+006 1.001503594158e+006 1.001446921803e+006 1.002513153208e+006 1.001776386638e+006 1.002470887783e+006 1.002151100741e+006 1.002110253553e+006 1.002197813161e+006 1.001572057692e+006 1.001383883014e+006 1.001345059484e+006 1.002091781134e+006 1.001583869987e+006 1.001318965131e+006 1.001320570178e+006 1.002106584518e+006 1.001333110391e+006 1.001325690415e+006 1.002176346629e+006 1.001653328443e+006 1.001423718787e+006 1.001736138571e+006 1.001341963021e+006 1.001435746007e+006 1.001985398715e+006 1.001393281772e+006 1.001325885723e+006 1.002026032193e+006 1.001336981911e+006 1.001512124848e+006 1.001559662772e+006 1.001382167997e+006 1.001582222377e+006 1.001403339710e+006 1.001500832620e+006 1.001606469568e+006 1.001547480000e+006 1.001712622018e+006 1.002219166853e+006 1.002163223096e+006 1.002270060771e+006 1.001357779059e+006 1.001960625753e+006 1.002501388730e+006 1.002121737744e+006 1.002063390654e+006 1.001587172276e+006 1.001380681560e+006 1.001818929095e+006 1.001616925811e+006 1.001468014763e+006 1.001429662048e+006 1.001462382416e+006 1.002040755308e+006 1.002245798461e+006 1.002153174947e+006 1.002255136947e+006 1.002468292982e+006 1.001787644655e+006 1.002363990787e+006 1.001636334133e+006 1.001341278840e+006 1.002050636371e+006 1.001410497345e+006 1.001925876101e+006 1.002122859043e+006 1.002260088369e+006 1.001298317509e+006 1.002204812858e+006 1.002143794225e+006 1.001601460966e+006 1.002417452003e+006 1.001539927410e+006 1.001706155139e+006 1.001365563377e+006 1.001429914336e+006 1.002082214321e+006 1.002470840826e+006 1.001868961654e+006 1.002259133100e+006 1.002490238890e+006 1.002475233090e+006 1.001368878510e+006 1.002465063998e+006 1.001633909092e+006 1.002283563241e+006 1.001456998945e+006 1.001411099033e+006 1.002223367110e+006 1.002439881862e+006 1.002019553558e+006 1.001339864048e+006 1.001314992977e+006 1.001336562878e+006 1.001849719688e+006 1.001361227334e+006 1.001410409867e+006 1.001490714224e+006 1.001338000156e+006 1.001807115801e+006 1.002458743308e+006 1.001732062894e+006 1.001726865373e+006 1.002146619084e+006 1.002470558457e+006 1.001325609791e+006 1.001841473966e+006 1.001412979750e+006 1.002354593039e+006 1.001688443837e+006 1.002449172296e+006 1.001347754370e+006 1.001735745656e+006 1.001365738104e+006 1.002199168575e+006 1.002349027696e+006 1.001447652309e+006 1.002408707835e+006 1.001321948345e+006 1.001376504520e+006 1.001972304678e+006 1.001436325865e+006 1.001757253251e+006 1.001652423598e+006 1.002181706772e+006 1.002164767798e+006 1.001296867231e+006 1.002557288766e+006 1.001874361401e+006 1.001824934581e+006 1.001834625507e+006 1.002341966690e+006 1.002299824612e+006 1.002332020868e+006 1.002344571099e+006 1.001958320687e+006 1.002135149455e+006 1.002010740003e+006 1.001327880651e+006 1.001758775901e+006 1.002172694956e+006 1.002160512183e+006 1.002222146442e+006 1.002242461492e+006 1.002077656079e+006 1.002238009300e+006 1.002011795867e+006 1.002232002097e+006 1.002134900625e+006 1.002264710052e+006 1.002237222562e+006 1.001529684742e+006 1.001597755291e+006 1.001765570795e+006 1.001753384346e+006 1.001731481047e+006 1.001546935360e+006 1.001564428527e+006 1.001547633696e+006 1.001803931566e+006 1.001762119676e+006 1.001749453898e+006 1.001554842056e+006 1.001652634978e+006 1.001545523277e+006 1.001711897133e+006 1.001951378773e+006 1.001730959548e+006 1.001593920513e+006 1.001545195906e+006 1.001657788769e+006 1.001697225004e+006 1.001950839827e+006 1.001724609820e+006 1.001596039379e+006 1.001765898565e+006 1.001816031403e+006 1.001780543292e+006 1.001803925491e+006 1.001755355122e+006 1.001777333973e+006 1.001816032966e+006 1.001765882557e+006 1.001780520088e+006 1.001803896340e+006 1.001755357571e+006 1.001777325201e+006 1.001669365393e+006 1.001930647460e+006 1.001699932308e+006 1.001787489423e+006 1.001648095523e+006 1.001733720397e+006 1.001930641892e+006 1.001669425580e+006 1.001699900263e+006 1.001787471859e+006 1.001648097264e+006 1.001733720620e+006 1.001929556763e+006 1.001836103073e+006 1.001674693117e+006 1.001746341731e+006 1.001836080387e+006 1.001929565166e+006 1.001674647496e+006 1.001745960085e+006 1.001867947336e+006 1.001608623497e+006 1.001961972449e+006 1.001668410426e+006 1.001901646943e+006 1.001847131724e+006 1.001608547830e+006 1.001867934330e+006 1.001962122111e+006 1.001668436269e+006 1.001901654121e+006 1.001847123718e+006 1.001587040188e+006 1.001547119571e+006 1.001660786739e+006 1.001585919643e+006 1.001547377162e+006 1.001660425327e+006 1.001819246349e+006 1.001901540307e+006 1.001794028962e+006 1.001819217594e+006 1.001901594056e+006 1.001794064813e+006 1.001667318814e+006 1.001667527028e+006 1.001826199488e+006 1.001731889294e+006 1.001582895986e+006 1.001635325684e+006 1.001825485760e+006 1.001635495417e+006 1.001828037953e+006 1.001743913991e+006 1.001758557424e+006 1.001803600728e+006 1.001828030409e+006 1.001803591560e+006 1.001626998634e+006 1.001743389285e+006 1.001628757670e+006 1.001831659459e+006 1.001958671007e+006 1.001958552806e+006 1.001831739368e+006 1.001840849809e+006 1.001604035718e+006 1.001604037411e+006 1.001806740517e+006 1.001687928520e+006 1.001806753741e+006 1.001819730760e+006 1.001779036894e+006 1.001819709985e+006 1.001828770098e+006 1.001828719058e+006 1.001761383412e+006 1.001866234449e+006 1.001866246951e+006 1.001752352200e+006 1.001578453033e+006 1.001751221915e+006 1.001772738086e+006 1.001562513479e+006 1.001582427033e+006 1.001557160259e+006 1.001622515259e+006 1.001458873664e+006 1.001614803151e+006 1.001450746500e+006 1.001554604629e+006 1.001597306586e+006 1.001902777078e+006 1.002030613960e+006 1.001728162900e+006 1.002064806591e+006 1.002494860252e+006 1.001826514478e+006 1.002447257973e+006 1.002102933646e+006 1.001745500361e+006 1.001948002684e+006 1.001953764077e+006 1.001534209805e+006 1.003808166308e+006 1.000164955668e+006 1.001025234344e+006 1.002346607017e+006 1.001684412970e+006 1.002187732436e+006 1.002317009645e+006 1.001877812435e+006 1.002247916028e+006 1.001287715958e+006 1.001997582385e+006 1.001870224775e+006 1.002487592084e+006 1.002076460014e+006 1.001618806095e+006 1.001638187779e+006 1.001900947416e+006 1.002466578748e+006 1.001572732537e+006 1.002356997030e+006 1.001918531858e+006 1.002281212910e+006 1.001553805181e+006 1.001581118850e+006 1.001594131384e+006 1.002148309094e+006 1.001561672650e+006 1.002316705032e+006 1.001947454689e+006 1.002105841733e+006 1.002306475320e+006 1.002060680493e+006 1.001710091640e+006 1.002097917327e+006 1.001736904202e+006 1.001349188315e+006 1.001963139859e+006 1.002346161876e+006 1.001868165343e+006 1.001442057790e+006 1.001450945160e+006 1.001783876567e+006 1.001838659115e+006 1.001830087009e+006 1.002135110744e+006 1.002138726737e+006 1.002332884905e+006 1.001961994943e+006 1.002104613450e+006 1.001489851203e+006 1.002386648812e+006 1.001398024692e+006 1.001936636739e+006 1.001834552574e+006 1.001930182136e+006 1.002004599222e+006 1.001356063856e+006 1.001524316340e+006 1.002324185956e+006 1.001393302024e+006 1.001461754847e+006 1.002078266450e+006 1.002080268050e+006 1.001502621002e+006 1.001559677238e+006 1.001520932533e+006 1.001824206429e+006 1.001506000745e+006 1.002021834193e+006 1.002110532366e+006 1.002077671602e+006 1.001520746094e+006 1.001718459197e+006 1.002251078428e+006 1.002369624169e+006 1.002017397430e+006 1.001619190114e+006 1.001678405116e+006 1.001420400888e+006 1.001331781013e+006 1.002075924460e+006 1.002356572442e+006 1.001272747688e+006 1.001355052351e+006 1.002090796777e+006 1.002496182592e+006 1.001959049849e+006 1.001418398756e+006 1.002158434032e+006 1.002291712521e+006 1.001936111557e+006 1.001540279452e+006 1.002374194673e+006 1.001808130503e+006 1.001913327672e+006 1.001834040716e+006 1.001843237115e+006 1.001339768846e+006 1.001516807820e+006 1.002039646034e+006 1.002399547374e+006 1.001835312605e+006 1.001380168971e+006 1.001696418795e+006 1.002097076070e+006 1.002106977818e+006 1.002417282347e+006 1.001577946530e+006 1.001414964278e+006 1.002290127510e+006 1.002275137227e+006 1.002272635547e+006 1.001925525129e+006 1.001316703278e+006 1.001911222534e+006 1.002396242870e+006 1.001814094222e+006 1.002392211739e+006 1.002393853453e+006 1.002104034311e+006 1.001409038431e+006 1.002355340598e+006 1.002384330069e+006 1.001318489265e+006 1.001511328104e+006 1.002134398992e+006 1.001850743564e+006 1.001581001706e+006 1.001659988706e+006 1.002366888166e+006 1.001842060209e+006 1.002052975292e+006 1.002415764327e+006 1.001556463511e+006 1.001776111858e+006 1.002088030430e+006 1.001635956176e+006 1.001724109307e+006 1.002201170332e+006 1.001518398262e+006 1.001640010268e+006 1.001546207442e+006 1.002417761817e+006 1.002508097551e+006 1.001390941865e+006 1.001472181709e+006 1.001596863110e+006 1.002171423385e+006 1.001837758970e+006 1.001873589041e+006 1.002471714455e+006 1.002208947259e+006 1.001860243662e+006 1.001987082923e+006 1.002322414771e+006 1.002363156280e+006 1.002053938318e+006 1.001985784803e+006 1.001569462210e+006 1.001785349399e+006 1.001485569130e+006 1.002499569553e+006 1.001268630664e+006 1.002139538630e+006 1.001965802547e+006 1.001626742818e+006 1.001451882065e+006 1.002229372096e+006 1.001407472661e+006 1.001299406599e+006 1.001744807572e+006 1.002287795828e+006 1.001796560475e+006 1.002180628588e+006 1.001961816665e+006 1.001765992617e+006 1.002345358778e+006 1.001573749070e+006 1.001257278887e+006 1.002335855494e+006 1.001710842722e+006 1.002403268557e+006 1.001497888431e+006 1.002273805095e+006 1.001846509330e+006 1.001310881721e+006 1.002277220039e+006 1.001656482946e+006 1.002355368730e+006 1.001429873312e+006 1.001846151820e+006 1.002072104176e+006 1.001399251628e+006 1.001428383462e+006 1.002153721521e+006 9.986485254783e+005 9.989569492104e+005 9.991477715872e+005 1.001670153684e+006 1.001917957737e+006 1.002376442258e+006 1.002140301899e+006 1.001510594862e+006 1.002342979931e+006 1.001700161534e+006 1.001360142609e+006 1.002265897152e+006 1.001743551754e+006 1.001700475267e+006 1.001707575857e+006 1.001917073143e+006 1.002340544381e+006 1.001908001003e+006 1.001720670157e+006 1.002178708912e+006 1.001366907074e+006 1.002144731870e+006 1.001571791923e+006 1.002185684816e+006 1.001714927412e+006 1.002049867249e+006 1.001726347086e+006 1.001656151951e+006 9.978151915110e+005 9.988930818331e+005 1.002123170926e+006 1.001340880741e+006 1.001430850783e+006 1.002005888716e+006 1.001466427622e+006 1.001762922977e+006 1.001820526596e+006 1.001884077711e+006 1.001817731900e+006 1.001879352120e+006 1.001377179293e+006 1.001654473792e+006 1.001399536275e+006 1.001323392979e+006 1.001661502965e+006 1.001857383344e+006 1.001939187519e+006 1.001856936804e+006 1.002274558117e+006 1.001793366723e+006 1.001645664913e+006 1.001922913510e+006 1.001688997676e+006 1.001364965861e+006 1.002258025769e+006 1.002407233703e+006 1.001348496444e+006 1.001267951039e+006 1.002453726394e+006 1.001305697613e+006 1.001594303689e+006 1.002182702874e+006 9.988944689242e+005 9.990002344742e+005 1.002107664854e+006 1.002434907671e+006 1.002029649158e+006 1.002242392639e+006 1.002154844854e+006 1.002057082928e+006 1.001542181664e+006 1.001404646754e+006 1.001402231726e+006 1.002180967613e+006 1.002117485280e+006 1.001560391296e+006 1.002139309712e+006 1.002118225157e+006 1.002204545967e+006 1.002344811964e+006 1.001980791909e+006 1.001430473510e+006 9.995104823462e+005 9.995762696791e+005 1.002225931809e+006 1.002364931292e+006 1.002302206460e+006 1.001649064359e+006 1.002145877224e+006 1.002118857342e+006 1.002236517323e+006 1.001991832047e+006 1.001630925483e+006 1.001825152978e+006 1.001889690824e+006 1.002047706115e+006 1.001899443076e+006 1.001817397819e+006 1.002062836741e+006 1.001838573998e+006 1.001805387103e+006 1.001823123251e+006 1.001664146082e+006 1.001784596188e+006 1.001811129792e+006 1.001947369838e+006 1.001718934841e+006 1.001893784311e+006 1.001713570977e+006 1.001942961726e+006 1.001819467352e+006 1.001946565996e+006 1.001960402277e+006 1.001947079542e+006 1.001952111391e+006 1.001811710165e+006 1.001768853929e+006 1.001636393719e+006 1.001769882374e+006 1.001639393569e+006 1.002123071901e+006 1.001828668057e+006 1.002020102601e+006 1.001834443875e+006 1.002028756382e+006 1.001853953832e+006 1.001771650029e+006 1.001856659010e+006 1.001791193248e+006 1.001780842652e+006 1.001853471165e+006 1.001853643930e+006 1.001760764080e+006 1.001889402393e+006 1.002008326923e+006 1.001888334445e+006 1.002037333186e+006 1.001679180507e+006 1.001748280603e+006 1.001672269192e+006 1.001736808504e+006 1.001983602543e+006 1.001912127285e+006 1.001983919639e+006 1.001912259105e+006 1.001869500062e+006 1.001622270482e+006 1.002087322551e+006 1.002050007196e+006 1.001878305838e+006 1.001810174895e+006 1.001624421624e+006 1.001870999556e+006 1.002082045235e+006 1.002050622137e+006 1.001879646100e+006 1.001811866503e+006 1.001744004468e+006 1.001681439991e+006 1.001878516003e+006 1.001744425167e+006 1.001674123203e+006 1.001882093049e+006 1.002141673064e+006 1.001961177191e+006 1.002043737226e+006 1.002136282405e+006 1.001940029991e+006 1.002044247036e+006 1.001524767171e+006 1.001914811989e+006 1.001542600985e+006 1.001526771052e+006 1.001954831038e+006 1.001562263687e+006 1.002203606435e+006 1.001576946039e+006 1.002172904135e+006 1.001579218135e+006 1.001711177559e+006 1.002080200985e+006 1.001711784930e+006 1.002074129241e+006 1.001743354968e+006 1.001895356547e+006 1.001844686606e+006 1.001745472566e+006 1.001895070692e+006 1.001844935539e+006 1.001707999098e+006 1.001951991866e+006 1.001707317454e+006 1.001951506958e+006 1.001993563225e+006 1.001997674808e+006 1.001923348337e+006 1.001922119894e+006 1.001598180236e+006 1.001587463312e+006 1.001589476013e+006 1.002118119366e+006 1.001554680752e+006 1.001881222226e+006 1.002082461152e+006 1.002055883421e+006 1.001627069141e+006 1.001637862373e+006 1.001654175881e+006 1.002084204821e+006 1.001715603944e+006 1.002084642050e+006 1.001712325899e+006 1.001904223208e+006 1.001584366884e+006 1.001886736277e+006 1.001574930574e+006 1.001576679459e+006 1.002188361817e+006 1.001684915293e+006 1.001388784663e+006 1.002258314487e+006 1.002240323393e+006 1.002138309451e+006 1.002059888861e+006 1.001951860290e+006 1.002100151297e+006 1.002074090741e+006 1.002031769818e+006 1.001625445369e+006 1.001851664420e+006 1.001505580531e+006 1.001901944301e+006 1.001680139988e+006 1.001547802226e+006 1.001690959708e+006 1.001639682102e+006 1.001671448014e+006 1.002262851353e+006 1.002286478917e+006 1.001702496569e+006 1.002133901070e+006 1.001695299313e+006 1.001866645730e+006 1.002141728660e+006 1.000000000000e+006 1.000000000000e+006 9.995973728310e+005 1.002155380813e+006 1.002393628863e+006 1.001635746966e+006 1.002219323991e+006 1.002225963889e+006 1.001437308243e+006 1.002335148223e+006 1.001828763341e+006 1.002287152997e+006 1.001609607686e+006 1.001547680690e+006 1.001530738074e+006 1.001404603551e+006 1.001735073563e+006 1.001631662751e+006 1.002223946164e+006 1.002367640854e+006 1.001869505010e+006 1.001579450923e+006 1.001604782357e+006 1.002231688494e+006 1.002197373180e+006 1.002169421839e+006 1.001536173320e+006 1.001533567100e+006 1.002400881225e+006 1.001782063026e+006 1.001782335502e+006 1.001693709013e+006 1.001763928589e+006 1.002234505667e+006 1.001637331110e+006 1.001531050834e+006 1.001361376972e+006 1.001733638624e+006 1.001969874899e+006 1.001629588792e+006 1.001868915162e+006 1.001541115988e+006 1.000236467190e+006 9.992002901308e+005 1.002333295758e+006 1.002090689089e+006 1.000796011168e+006 1.002296604119e+006 1.001868474800e+006 1.002308818241e+006 1.001986542685e+006 1.001887816910e+006 9.992409775396e+005 1.002332391176e+006 1.002213841270e+006 1.001397365606e+006 1.001696801008e+006 1.002361971382e+006 1.001830609912e+006 1.001829559492e+006 1.002390990003e+006 1.002045529961e+006 1.001904386456e+006 1.001677278427e+006 1.002305967299e+006 1.002175412694e+006 1.001426732516e+006 1.001787597297e+006 1.001869987263e+006 1.002062982982e+006 1.001698142057e+006 1.001612293186e+006 1.002328452629e+006 1.002094964748e+006 1.002331331778e+006 1.002349611642e+006 1.002087596589e+006 1.001374700769e+006 1.001515755487e+006 1.000937608825e+006 1.002207902958e+006 9.983291656192e+005 1.001684810399e+006 1.001360249597e+006 1.001869443125e+006 1.001586674651e+006 1.002122926544e+006 1.002420328262e+006 1.002176591513e+006 1.002167915193e+006 1.002273579775e+006 1.002240018396e+006 1.002260216208e+006 1.002341722609e+006 1.002245148766e+006 1.000727661883e+006 1.000860647655e+006 9.990575115581e+005 1.000872876189e+006 1.002134011308e+006 1.000863027409e+006 1.010324752268e+006 1.001493522010e+006 1.002141318801e+006 1.002217986181e+006 1.002333006781e+006 1.000858815479e+006 1.001692601871e+006 1.001738059617e+006 1.001776534636e+006 1.001776208628e+006 1.001898249833e+006 1.001894361224e+006 1.002320458265e+006 1.002150541432e+006 1.001651099678e+006 1.001656203558e+006 1.001653084207e+006 1.001668149348e+006 1.002137522215e+006 1.002191329090e+006 
        </DataArray>
        <DataArray type="Float64" Name="MEAN_PRESSURE" format="ascii">