<?xml version="1.0"?>
<VTKFile type="UnstructuredGrid" version="0.1" byte_order="LittleEndian">
  <UnstructuredGrid>
    <Piece NumberOfPoints="963" NumberOfCells="1758">
      <Points>
        <DataArray type="Float64" NumberOfComponents="3" format="ascii">
          1.600262034769e+002 1.257989505921e+001 0.000000000000e+000
          1.635346199106e+002 2.000000000000e+001 0.000000000000e+000
          1.554515002484e+002 2.000000000000e+001 0.000000000000e+000
          3.459306441575e+000 1.667621982453e+001 0.000000000000e+000
          3.062266634850e+000 1.705413688405e+001 0.000000000000e+000
          2.873380769063e+000 1.650527725632e+001 0.000000000000e+000
          1.514088444034e+000 1.865189448105e+001 0.000000000000e+000
          1.967902677551e+000 1.834103489750e+001 0.000000000000e+000
          2.034564522234e+000 1.890806711991e+001 0.000000000000e+000
          2.478275273162e+000 1.702762299110e+001 0.000000000000e+000
          2.952621433467e+000 1.774357373580e+001 0.000000000000e+000
          2.237893542067e+000 1.782457469610e+001 0.000000000000e+000
          3.313583922780e+000 3.274674552047e+000 0.000000000000e+000
          2.561432712787e+000 3.156040447793e+000 0.000000000000e+000
          3.047531989640e+000 2.714594415171e+000 0.000000000000e+000
          2.750804692284e+000 3.936058190693e+000 0.000000000000e+000
          2.599039179818e+000 2.451529939148e+000 0.000000000000e+000
          3.139686649742e+000 2.186924052088e+000 0.000000000000e+000
          1.919984553221e+000 3.358010194268e+000 0.000000000000e+000
          1.960900304591e+000 2.773319745251e+000 0.000000000000e+000
          1.894565400391e+000 1.733316857565e+001 0.000000000000e+000
          0.000000000000e+000 1.538461538461e+001 0.000000000000e+000
          5.816229249735e-001 1.567919247147e+001 0.000000000000e+000
          0.000000000000e+000 1.589743589743e+001 0.000000000000e+000
          9.766405669483e+001 2.000000000000e+001 0.000000000000e+000
          1.010672711393e+002 1.500000000000e+001 0.000000000000e+000
          1.029329279907e+002 2.000000000000e+001 0.000000000000e+000
          9.588503785413e+001 1.500000000000e+001 0.000000000000e+000
          1.039231647117e+002 1.000000000000e+001 0.000000000000e+000
          9.860830811271e+001 1.000000000000e+001 0.000000000000e+000
          1.010672711397e+002 5.000000000000e+000 0.000000000000e+000
          9.766405669557e+001 0.000000000000e+000 0.000000000000e+000
          1.029329279915e+002 0.000000000000e+000 0.000000000000e+000
          9.588503785449e+001 5.000000000000e+000 0.000000000000e+000
          7.892434178002e+001 2.000000000000e+001 0.000000000000e+000
          8.173808356948e+001 1.500000000000e+001 0.000000000000e+000
          8.328058896910e+001 2.000000000000e+001 0.000000000000e+000
          7.679274808893e+001 1.514423393202e+001 0.000000000000e+000
          7.970503892166e+001 1.000000000000e+001 0.000000000000e+000
          8.409930620613e+001 1.000000000000e+001 0.000000000000e+000
          8.173808356980e+001 5.000000000000e+000 0.000000000000e+000
          7.892434178065e+001 0.000000000000e+000 0.000000000000e+000
          8.328058896976e+001 0.000000000000e+000 0.000000000000e+000
          7.679274808925e+001 4.855766067979e+000 0.000000000000e+000
          1.084583939765e+002 2.000000000000e+001 0.000000000000e+000
          1.122011528880e+002 1.500000000000e+001 0.000000000000e+000
          1.142529496098e+002 2.000000000000e+001 0.000000000000e+000
          1.065018792644e+002 1.500000000000e+001 0.000000000000e+000
          1.153419838410e+002 1.000000000000e+001 0.000000000000e+000
          1.094968549120e+002 1.000000000000e+001 0.000000000000e+000
          1.122011528884e+002 5.000000000000e+000 0.000000000000e+000
          1.084583939773e+002 0.000000000000e+000 0.000000000000e+000
          1.142529496106e+002 0.000000000000e+000 0.000000000000e+000
          1.065018792648e+002 5.000000000000e+000 0.000000000000e+000
          1.181779812237e+002 1.500000000000e+001 0.000000000000e+000
          1.203297004775e+002 2.000000000000e+001 0.000000000000e+000
          1.214717707847e+002 1.000000000000e+001 0.000000000000e+000
          1.181779812242e+002 5.000000000000e+000 0.000000000000e+000
          1.203297004784e+002 0.000000000000e+000 0.000000000000e+000
          7.477039199538e+001 2.000000000000e+001 0.000000000000e+000
          7.551483469771e+001 1.000000000000e+001 0.000000000000e+000
          7.296959467356e+001 1.385646386579e+001 0.000000000000e+000
          7.477039199599e+001 0.000000000000e+000 0.000000000000e+000
          7.296959467379e+001 6.143536134207e+000 0.000000000000e+000
          6.918477198508e+001 1.366665532880e+001 0.000000000000e+000
          6.746477463053e+001 1.000000000000e+001 0.000000000000e+000
          7.151921701478e+001 1.000000000000e+001 0.000000000000e+000
          6.918477198529e+001 6.333344671202e+000 0.000000000000e+000
          9.263986346551e+001 2.000000000000e+001 0.000000000000e+000
          9.094345943471e+001 1.500000000000e+001 0.000000000000e+000
          9.354026529380e+001 1.000000000000e+001 0.000000000000e+000
          9.263986346623e+001 0.000000000000e+000 0.000000000000e+000
          9.094345943506e+001 5.000000000000e+000 0.000000000000e+000
          1.244344522558e+002 1.503312574389e+001 0.000000000000e+000
          1.267023895482e+002 2.000000000000e+001 0.000000000000e+000
          1.285510028831e+002 1.020485663255e+001 0.000000000000e+000
          1.244344522563e+002 5.033125743893e+000 0.000000000000e+000
          1.267023895491e+002 0.000000000000e+000 0.000000000000e+000
          8.623136018348e+001 1.500000000000e+001 0.000000000000e+000
          8.784898578901e+001 2.000000000000e+001 0.000000000000e+000
          8.870757443665e+001 1.000000000000e+001 0.000000000000e+000
          8.623136018382e+001 5.000000000000e+000 0.000000000000e+000
          8.784898578969e+001 0.000000000000e+000 0.000000000000e+000
          4.872472752737e+000 0.000000000000e+000 0.000000000000e+000
          4.204479229380e+000 6.412840757122e-001 0.000000000000e+000
          4.157376851380e+000 0.000000000000e+000 0.000000000000e+000
          5.192892237051e+000 7.280355562789e-001 0.000000000000e+000
          1.306630304579e+000 6.212843344151e-001 0.000000000000e+000
          1.050228457081e+000 0.000000000000e+000 0.000000000000e+000
          1.614006202528e+000 0.000000000000e+000 0.000000000000e+000
          1.266763055794e+001 1.554696422866e+001 0.000000000000e+000
          1.263589100638e+001 1.657720348306e+001 0.000000000000e+000
          1.174268578662e+001 1.633018318031e+001 0.000000000000e+000
          6.588835695415e+000 7.505681085529e+000 0.000000000000e+000
          6.456871838389e+000 6.658671683861e+000 0.000000000000e+000
          7.208099140752e+000 7.038822846307e+000 0.000000000000e+000
          4.412623338166e+000 9.138856431549e+000 0.000000000000e+000
          4.024185797397e+000 8.708923235630e+000 0.000000000000e+000
          4.601447447338e+000 8.507292699647e+000 0.000000000000e+000
          5.325995059827e-001 6.308307298123e+000 0.000000000000e+000
          0.000000000000e+000 6.666666666655e+000 0.000000000000e+000
          0.000000000000e+000 6.153846153835e+000 0.000000000000e+000
          3.986461521768e+000 8.146114708182e+000 0.000000000000e+000
          2.411603373059e+000 6.510912162016e+000 0.000000000000e+000
          1.807525763324e+000 6.938080373464e+000 0.000000000000e+000
          1.686779352680e+000 6.178928843543e+000 0.000000000000e+000
          2.510760620997e+000 7.229076682239e+000 0.000000000000e+000
          3.166991983438e+000 6.906135870389e+000 0.000000000000e+000
          3.452788915829e+000 6.276851216781e+000 0.000000000000e+000
          3.340122000742e+000 5.656365440432e+000 0.000000000000e+000
          4.047936562877e+000 5.873561587395e+000 0.000000000000e+000
          1.802463974828e+000 1.292744708026e+001 0.000000000000e+000
          1.383967161336e+000 1.330299552906e+001 0.000000000000e+000
          1.329690820161e+000 1.266495373033e+001 0.000000000000e+000
          2.267922292389e+000 1.431116835808e+001 0.000000000000e+000
          2.854613987538e+000 1.466581611369e+001 0.000000000000e+000
          2.339869278674e+000 1.493776402241e+001 0.000000000000e+000
          4.690956878046e+000 3.115726773737e+000 0.000000000000e+000
          4.014773718330e+000 2.850429494150e+000 0.000000000000e+000
          4.643493383296e+000 2.293565471327e+000 0.000000000000e+000
          5.186083944243e+000 1.661927139510e+000 0.000000000000e+000
          5.452965511439e+000 2.679881546544e+000 0.000000000000e+000
          5.360460104304e+000 3.539902157655e+000 0.000000000000e+000
          6.197986304192e+000 3.115706366113e+000 0.000000000000e+000
          7.929356606585e-001 1.634705420870e+001 0.000000000000e+000
          1.222819867503e+000 1.599517159419e+001 0.000000000000e+000
          1.215723647926e+000 1.546209040954e+001 0.000000000000e+000
          1.770601276021e+000 1.521217632514e+001 0.000000000000e+000
          1.242830150061e+000 1.493919370237e+001 0.000000000000e+000
          1.166444124506e+000 4.610115997312e+000 0.000000000000e+000
          1.851620547934e+000 4.486892013458e+000 0.000000000000e+000
          1.494152702314e+000 5.145235789232e+000 0.000000000000e+000
          1.353088107040e+000 4.090803091641e+000 0.000000000000e+000
          3.802567455935e+000 5.084697985980e+000 0.000000000000e+000
          1.014840185783e+000 5.494768572296e+000 0.000000000000e+000
          8.831064584820e-001 5.109311190608e+000 0.000000000000e+000
          1.727903958959e+000 1.618384478933e+001 0.000000000000e+000
          1.343261525342e+000 1.651800241408e+001 0.000000000000e+000
          3.308120627291e+000 8.593311644828e+000 0.000000000000e+000
[...]
      <PointData Scalars="LIQUID_PRESSURE">
        <DataArray type="Float64" Name="LIQUID_PRESSURE" format="ascii">
          9.995930536743e+005 1.000560223677e+006 1.000584605346e+006 9.999288738076e+005 1.000081472478e+006 1.000284856426e+006 1.000220851560e+006 1.000838459164e+006 1.000884179418e+006 1.000865248327e+006 1.000180747717e+006 1.000923385335e+006 9.998557620800e+005 1.000702427324e+006 1.000063262262e+006 1.000366600028e+006 1.000693161157e+006 9.999322764164e+005 1.000809734466e+006 1.000880481470e+006 1.000714150447e+006 1.000763900086e+006 1.000349835809e+006 1.000756837369e+006 1.000300066340e+006 1.000300846689e+006 1.000292940300e+006 1.000298979847e+006 1.000291452330e+006 1.000299444604e+006 1.000300796885e+006 1.000300056649e+006 1.000293219683e+006 1.000299063185e+006 1.000327244200e+006 1.000314883269e+006 1.000319108782e+006 1.000328460210e+006 1.000334408004e+006 1.000312396928e+006 1.000314995763e+006 1.000327332354e+006 1.000319090190e+006 1.000328004111e+006 1.000287984762e+006 1.000277786081e+006 1.000272636293e+006 1.000286982854e+006 1.000271328694e+006 1.000286192974e+006 1.000278219508e+006 1.000287661329e+006 1.000274511064e+006 1.000287114494e+006 1.000270023239e+006 1.000261098211e+006 1.000259302260e+006 1.000272518740e+006 1.000265262091e+006 1.000340865541e+006 1.000317853091e+006 1.000317013989e+006 1.000340651175e+006 1.000317778569e+006 1.000297537595e+006 1.000314072944e+006 1.000375942050e+006 1.000297784882e+006 1.000318658379e+006 1.000306537064e+006 1.000315230647e+006 1.000318680919e+006 1.000306524315e+006 1.000249632646e+006 1.000242433889e+006 1.000233489899e+006 1.000246983861e+006 1.000235649973e+006 1.000328212507e+006 1.000304256437e+006 1.000307680271e+006 1.000328196229e+006 1.000304258985e+006 1.000587004541e+006 1.000775383045e+006 1.000645981656e+006 1.000122928324e+006 9.999760671157e+005 9.998782153449e+005 1.000411944583e+006 1.000445343580e+006 1.000234121450e+006 1.000320350635e+006 1.000920078401e+006 1.000877841512e+006 1.000326036929e+006 1.000893746924e+006 1.000587850806e+006 1.000702943697e+006 1.000356505827e+006 1.000824882408e+006 1.000784209157e+006 1.000561603885e+006 1.000833145049e+006 1.000658820753e+006 1.000521043080e+006 1.000686068181e+006 9.998837846416e+005 9.999068067627e+005 9.998620129214e+005 1.000670963153e+006 1.000612318276e+006 1.000023669172e+006 9.999676905930e+005 1.000944448569e+006 1.000288119060e+006 1.000916558300e+006 1.000647748386e+006 1.000597648337e+006 1.000685238019e+006 1.000111891843e+006 9.999337295427e+005 9.998922216638e+005 1.000569393858e+006 1.000137806649e+006 9.998619836683e+005 9.998612732502e+005 1.000569913471e+006 9.998688591047e+005 9.998709657157e+005 1.000618849838e+006 1.000152366909e+006 9.999471387629e+005 1.000229497183e+006 9.998894707346e+005 9.999932880265e+005 1.000460313706e+006 9.999232645379e+005 9.998564133640e+005 1.000512775196e+006 9.998616984137e+005 1.000062816910e+006 1.000113570291e+006 9.999116201624e+005 1.000132057503e+006 9.999547527577e+005 1.000009889282e+006 1.000128505814e+006 1.000100742261e+006 1.000226195655e+006 1.000676287797e+006 1.000669840135e+006 1.000707658636e+006 9.998910837793e+005 1.000435879696e+006 1.000920085414e+006 1.000601666996e+006 1.000583040750e+006 1.000109735785e+006 9.999077047154e+005 1.000313082466e+006 1.000117815169e+006 9.999834683747e+005 9.999813008614e+005 1.000027059377e+006 1.000514742684e+006 1.000687322623e+006 1.000656666601e+006 1.000696214568e+006 1.000905452997e+006 1.000275841461e+006 1.000817583758e+006 1.000140767498e+006 9.998872461270e+005 1.000531442770e+006 9.999261411203e+005 1.000425307379e+006 1.000637488944e+006 1.000718181827e+006 9.998526311722e+005 1.000649432060e+006 1.000599562282e+006 1.000124030996e+006 1.000865097652e+006 1.000095742506e+006 1.000260013184e+006 9.998898647093e+005 9.999467660521e+005 1.000547447928e+006 1.000906141370e+006 1.000363940577e+006 1.000736727573e+006 1.000924854631e+006 1.000916562166e+006 9.999300750272e+005 1.000907712434e+006 1.000137622470e+006 1.000740623036e+006 9.999839592633e+005 9.999323849293e+005 1.000685894489e+006 1.000868288963e+006 1.000485714281e+006 9.998731794856e+005 9.998647234742e+005 9.998608528664e+005 1.000337993286e+006 9.998916404147e+005 9.999403519598e+005 1.000007649390e+006 9.998910530794e+005 1.000291937244e+006 1.000891992604e+006 1.000401949300e+006 1.000398138765e+006 1.000626949343e+006 1.000909527399e+006 9.998892953462e+005 1.000324342416e+006 9.999423373606e+005 1.000818719714e+006 1.000190623447e+006 1.000915213502e+006 9.998932583666e+005 1.000232588892e+006 9.999097733697e+005 1.000653285560e+006 1.000807187984e+006 9.999955647178e+005 1.000845534823e+006 9.998624762766e+005 9.999130741684e+005 1.000463821929e+006 9.999519350953e+005 1.000303328069e+006 1.000169425100e+006 1.000633689595e+006 1.000615608670e+006 9.998413979650e+005 1.000978792595e+006 1.000355739843e+006 1.000372457878e+006 1.000368104403e+006 1.000818956397e+006 1.000762950852e+006 1.000795980828e+006 1.000813171571e+006 1.000488843974e+006 1.000601845675e+006 1.000541951292e+006 9.998810659205e+005 1.000315841365e+006 1.000625081571e+006 1.000651192299e+006 1.000664122025e+006 1.000684017007e+006 1.000603742447e+006 1.000677463611e+006 1.000547788071e+006 1.000678853372e+006 1.000642627937e+006 1.000697919636e+006 1.000673370824e+006 1.000265525612e+006 1.000326341592e+006 1.000439148483e+006 1.000412116167e+006 1.000412782055e+006 1.000282534381e+006 1.000306948289e+006 1.000273652221e+006 1.000468885048e+006 1.000417057087e+006 1.000424623672e+006 1.000287054097e+006 1.000313837945e+006 1.000265759436e+006 1.000390740240e+006 1.000516017476e+006 1.000389129342e+006 1.000292930558e+006 1.000266612622e+006 1.000317681388e+006 1.000381299556e+006 1.000515105855e+006 1.000384852984e+006 1.000294409205e+006 1.000345309595e+006 1.000383980732e+006 1.000371850712e+006 1.000360973510e+006 1.000347757278e+006 1.000353522556e+006 1.000383991904e+006 1.000345315701e+006 1.000371839401e+006 1.000360951425e+006 1.000347762593e+006 1.000353510681e+006 1.000288425539e+006 1.000478369514e+006 1.000312925626e+006 1.000363978099e+006 1.000284066440e+006 1.000336161104e+006 1.000478363102e+006 1.000288464433e+006 1.000312900887e+006 1.000363966146e+006 1.000284067369e+006 1.000336162146e+006 1.000462194732e+006 1.000389849529e+006 1.000260071443e+006 1.000307051300e+006 1.000389801586e+006 1.000462113016e+006 1.000260030773e+006 1.000306681222e+006 1.000435471010e+006 1.000265409634e+006 1.000517041597e+006 1.000311111728e+006 1.000477470193e+006 1.000426490959e+006 1.000265342217e+006 1.000435463808e+006 1.000517198154e+006 1.000311136087e+006 1.000477486497e+006 1.000426492799e+006 1.000270910887e+006 1.000250094819e+006 1.000312975253e+006 1.000269925428e+006 1.000250402088e+006 1.000312674646e+006 1.000376857213e+006 1.000436389387e+006 1.000364528182e+006 1.000376846075e+006 1.000436377295e+006 1.000364510486e+006 1.000267622616e+006 1.000267759656e+006 1.000444501252e+006 1.000357273858e+006 1.000281991274e+006 1.000293480010e+006 1.000443816863e+006 1.000293664520e+006 1.000393736379e+006 1.000339070844e+006 1.000352233729e+006 1.000370265067e+006 1.000393732111e+006 1.000370258363e+006 1.000313720165e+006 1.000386889103e+006 1.000315008112e+006 1.000373964635e+006 1.000478739265e+006 1.000478242657e+006 1.000373615854e+006 1.000444245218e+006 1.000259746813e+006 1.000259735190e+006 1.000391396279e+006 1.000305354992e+006 1.000391405660e+006 1.000406170970e+006 1.000381053053e+006 1.000406159486e+006 1.000388390844e+006 1.000388387384e+006 1.000342925796e+006 1.000408168737e+006 1.000408160309e+006 1.000397654194e+006 1.000311971698e+006 1.000397544534e+006 1.000340903903e+006 1.000313093647e+006 1.000329916770e+006 1.000309031932e+006 1.000352564072e+006 1.000273930732e+006 1.000350588297e+006 1.000269517436e+006 1.000084126173e+006 1.000106402553e+006 1.000416249386e+006 1.000520556510e+006 1.000224365766e+006 1.000543884443e+006 1.000932995590e+006 1.000331915892e+006 1.000869698508e+006 1.000610034606e+006 1.000268050772e+006 1.000427099691e+006 1.000488419761e+006 1.000049853862e+006 1.001473011079e+006 9.998429945685e+005 1.000426809272e+006 1.000834692748e+006 1.000188771751e+006 1.000674641309e+006 1.000787845888e+006 1.000365116715e+006 1.000703895728e+006 9.998304438759e+005 1.000477247718e+006 1.000355597033e+006 1.000917715507e+006 1.000543748872e+006 1.000149895026e+006 1.000150636256e+006 1.000397500407e+006 1.000901388611e+006 1.000095754930e+006 1.000833332900e+006 1.000455898870e+006 1.000747275905e+006 1.000046201441e+006 1.000113202485e+006 1.000121981047e+006 1.000639030399e+006 1.000073753759e+006 1.000786772713e+006 1.000424212284e+006 1.000606323954e+006 1.000773176432e+006 1.000543387661e+006 1.000257580653e+006 1.000566044575e+006 1.000225302810e+006 9.998725077880e+005 1.000439110057e+006 1.000815876167e+006 1.000393600641e+006 9.999840861289e+005 9.999721070032e+005 1.000282680140e+006 1.000342297514e+006 1.000346163437e+006 1.000636906633e+006 1.000631943268e+006 1.000804220451e+006 1.000449847601e+006 1.000581460651e+006 1.000005824662e+006 1.000855765572e+006 9.999360293094e+005 1.000429595090e+006 1.000355212135e+006 1.000436917885e+006 1.000483532207e+006 9.998924782083e+005 1.000048990088e+006 1.000797327279e+006 9.999235139397e+005 1.000003650373e+006 1.000569333973e+006 1.000552123809e+006 1.000037446316e+006 1.000074015013e+006 1.000035986586e+006 1.000324572386e+006 1.000038902362e+006 1.000515628883e+006 1.000608752131e+006 1.000557706973e+006 1.000041324384e+006 1.000236112605e+006 1.000729320907e+006 1.000821557593e+006 1.000490133408e+006 1.000135269608e+006 1.000190215573e+006 9.999553774293e+005 9.998668365525e+005 1.000576763044e+006 1.000826661700e+006 9.998220351966e+005 9.999075609325e+005 1.000569307186e+006 1.000931253211e+006 1.000452808694e+006 9.999613395112e+005 1.000640225128e+006 1.000761943348e+006 1.000439069601e+006 1.000068392969e+006 1.000858026128e+006 1.000326488477e+006 1.000408993982e+006 1.000315213735e+006 1.000325427107e+006 9.998958654465e+005 1.000040316655e+006 1.000546449142e+006 1.000868630566e+006 1.000351221620e+006 9.999239630746e+005 1.000207460173e+006 1.000600349697e+006 1.000603676272e+006 1.000868414262e+006 1.000086797304e+006 9.999670720784e+005 1.000804981072e+006 1.000751978066e+006 1.000758824497e+006 1.000414289369e+006 9.998654673953e+005 1.000450872362e+006 1.000878895306e+006 1.000335841090e+006 1.000863727428e+006 1.000868673887e+006 1.000587459845e+006 9.999383901573e+005 1.000828281199e+006 1.000822626468e+006 9.998515681123e+005 1.000044040201e+006 1.000606359239e+006 1.000369070085e+006 1.000097406781e+006 1.000178031896e+006 1.000838064581e+006 1.000363527594e+006 1.000524257741e+006 1.000861591230e+006 1.000065398767e+006 1.000288145687e+006 1.000572505981e+006 1.000145540686e+006 1.000233791162e+006 1.000687712914e+006 1.000050648328e+006 1.000165395423e+006 1.000070962838e+006 1.000875029424e+006 1.000933804917e+006 9.999412237567e+005 1.000005793089e+006 1.000127906269e+006 1.000657290836e+006 1.000344219731e+006 1.000375552009e+006 1.000903105538e+006 1.000654624874e+006 1.000355540267e+006 1.000485658134e+006 1.000825474789e+006 1.000830922102e+006 1.000536371964e+006 1.000478193283e+006 1.000072611319e+006 1.000312766493e+006 1.000023276688e+006 1.000929314844e+006 9.998192228205e+005 1.000647711791e+006 1.000447042432e+006 1.000134018827e+006 9.999766737660e+005 1.000726958769e+006 9.999588486988e+005 9.998525602311e+005 1.000293820265e+006 1.000765255076e+006 1.000303204097e+006 1.000677660892e+006 1.000458259253e+006 1.000282774011e+006 1.000818076703e+006 1.000091147360e+006 9.998196466920e+005 1.000786107349e+006 1.000220441479e+006 1.000848463675e+006 1.000014263159e+006 1.000757428842e+006 1.000362690918e+006 9.998492472656e+005 1.000778120393e+006 1.000146598655e+006 1.000841490359e+006 9.999609602852e+005 1.000380266657e+006 1.000593637136e+006 9.999332264609e+005 9.999534937173e+005 1.000643856244e+006 1.000095628596e+006 9.999398907201e+005 9.999922743777e+005 1.000163187629e+006 1.000455817869e+006 1.000826639596e+006 1.000608880246e+006 1.000034039307e+006 1.000826027712e+006 1.000203401646e+006 9.998861240676e+005 1.000766507666e+006 1.000271996219e+006 1.000411954881e+006 1.000415457749e+006 1.000455202391e+006 1.000811301345e+006 1.000386235873e+006 1.000236626201e+006 1.000677259602e+006 9.999074335897e+005 1.000623436493e+006 1.000129653286e+006 1.000664528685e+006 1.000217352414e+006 1.000567174611e+006 1.000223872531e+006 1.000174555810e+006 9.972680523337e+005 9.986998947814e+005 1.000594668524e+006 9.998741920574e+005 9.999532276727e+005 1.000504798462e+006 9.999777483671e+005 1.000301294883e+006 1.000345541158e+006 1.000412248201e+006 1.000344185253e+006 1.000408444389e+006 9.999065448051e+005 1.000206430708e+006 9.999308880314e+005 9.998800484376e+005 1.000238499447e+006 1.000398797114e+006 1.000467444204e+006 1.000398561898e+006 1.000772286857e+006 1.000310571781e+006 1.000146087876e+006 1.000421540852e+006 1.000191532432e+006 9.999036640321e+005 1.000717131986e+006 1.000873024236e+006 9.998924934003e+005 9.998239673489e+005 1.000883939383e+006 9.998355892043e+005 1.000113343135e+006 1.000669328557e+006 9.997952580086e+005 9.996818161839e+005 1.000629462966e+006 1.000859539787e+006 1.000492712789e+006 1.000703079884e+006 1.000627221819e+006 1.000583308183e+006 1.000074687432e+006 1.000254105559e+006 1.000253819065e+006 1.000667058652e+006 1.000601657882e+006 1.000099203083e+006 1.000613054132e+006 1.000599594076e+006 1.000683673574e+006 1.000811529174e+006 1.000468734882e+006 9.999755220231e+005 9.999645742211e+005 9.999817826010e+005 1.000722898655e+006 1.000838783332e+006 1.000763848821e+006 1.000162785650e+006 1.000592031511e+006 1.000633182977e+006 1.000679532363e+006 1.000499956674e+006 1.000191166131e+006 1.000370046143e+006 1.000455943104e+006 1.000552446169e+006 1.000425093641e+006 1.000366197842e+006 1.000563310028e+006 1.000369177390e+006 1.000328550656e+006 1.000354382208e+006 1.000211485154e+006 1.000315490199e+006 1.000335639682e+006 1.000474584417e+006 1.000262752904e+006 1.000411691917e+006 1.000254122657e+006 1.000455733082e+006 1.000356568101e+006 1.000469377990e+006 1.000474055516e+006 1.000469737664e+006 1.000465178872e+006 1.000331203085e+006 1.000296573557e+006 1.000176151195e+006 1.000296421272e+006 1.000178356319e+006 1.000610221645e+006 1.000339118306e+006 1.000528090629e+006 1.000344076213e+006 1.000536528041e+006 1.000393863042e+006 1.000322484474e+006 1.000405606828e+006 1.000336067344e+006 1.000333593710e+006 1.000393280831e+006 1.000404815485e+006 1.000308311696e+006 1.000412309328e+006 1.000512114988e+006 1.000408576865e+006 1.000538549079e+006 1.000217857267e+006 1.000278762045e+006 1.000211546203e+006 1.000266267339e+006 1.000503596483e+006 1.000423247654e+006 1.000504143822e+006 1.000424397537e+006 1.000388914493e+006 1.000163132707e+006 1.000602724008e+006 1.000553918620e+006 1.000404252356e+006 1.000316526777e+006 1.000165119957e+006 1.000390158684e+006 1.000597936957e+006 1.000554789637e+006 1.000405055479e+006 1.000317351378e+006 1.000284284855e+006 1.000205442050e+006 1.000395746345e+006 1.000286373630e+006 1.000200980899e+006 1.000399802703e+006 1.000632722064e+006 1.000474493025e+006 1.000546456041e+006 1.000630792004e+006 1.000452939309e+006 1.000547578490e+006 1.000065373110e+006 1.000431706398e+006 1.000081959970e+006 1.000065947487e+006 1.000461128269e+006 1.000099074400e+006 1.000706879441e+006 1.000122243087e+006 1.000677799947e+006 1.000111948974e+006 1.000245145246e+006 1.000573747329e+006 1.000244989798e+006 1.000570104514e+006 1.000302605453e+006 1.000415562862e+006 1.000375303788e+006 1.000304662333e+006 1.000415018460e+006 1.000375629989e+006 1.000261577442e+006 1.000474907732e+006 1.000261194916e+006 1.000474151004e+006 1.000497188844e+006 1.000500044016e+006 1.000436846197e+006 1.000435852560e+006 1.000150299794e+006 1.000142814156e+006 1.000125621727e+006 1.000610753897e+006 1.000076790337e+006 1.000414369270e+006 1.000592961205e+006 1.000566697266e+006 1.000150066552e+006 1.000159305901e+006 1.000171670290e+006 1.000582319221e+006 1.000245564584e+006 1.000584333599e+006 1.000244207103e+006 1.000414911094e+006 1.000120576555e+006 1.000400125139e+006 1.000113996608e+006 1.000102799832e+006 1.000654565322e+006 1.000203942133e+006 9.999133653689e+005 1.000761648531e+006 1.000720201300e+006 1.000621143913e+006 1.000558146164e+006 1.000454792341e+006 1.000602038837e+006 1.000580277984e+006 1.000539365554e+006 1.000150163214e+006 1.000356360298e+006 1.000055772943e+006 1.000419823826e+006 1.000207045667e+006 1.000074423787e+006 1.000214838155e+006 1.000146528815e+006 1.000212655806e+006 1.000744359459e+006 1.000766677519e+006 1.000217321540e+006 1.000613113097e+006 1.000206821446e+006 1.000403874130e+006 1.000628542087e+006 1.000000000000e+006 1.000000000000e+006 9.999564711264e+005 1.000656167331e+006 1.000849843940e+006 1.000137341695e+006 1.000696511915e+006 1.000699989859e+006 9.999598573727e+005 1.000814044888e+006 1.000340201127e+006 1.000761212242e+006 1.000122708973e+006 1.000074461410e+006 1.000063332841e+006 9.999213301765e+005 1.000257196819e+006 1.000136088410e+006 1.000714957345e+006 1.000844976181e+006 1.000361840116e+006 1.000104627203e+006 1.000122420381e+006 1.000730050671e+006 1.000688889094e+006 1.000662767623e+006 1.000332595263e+006 1.000330911161e+006 1.000853835697e+006 1.000333884563e+006 1.000334084278e+006 1.000187450369e+006 1.000289473587e+006 1.000706478439e+006 1.000163002084e+006 1.000045169498e+006 9.999085761137e+005 1.000229745319e+006 1.000481031559e+006 1.000150829770e+006 1.000371333003e+006 1.000067343563e+006 1.000124985316e+006 1.000158566187e+006 1.000799371991e+006 1.000586749206e+006 1.000277324113e+006 1.000766742303e+006 1.000415111105e+006 1.000772923726e+006 1.000494492547e+006 1.000392468753e+006 9.998818274469e+005 1.000792220423e+006 1.000669115438e+006 9.999168013710e+005 1.000227952661e+006 1.000831459939e+006 1.000367523170e+006 1.000367040411e+006 1.000864301292e+006 1.000573049013e+006 1.000402195262e+006 1.000165128543e+006 1.000793144679e+006 1.000682378187e+006 9.999524940409e+005 1.000293822971e+006 1.000354957829e+006 1.000572985522e+006 1.000210413871e+006 1.000143427172e+006 1.000793285423e+006 1.000598121781e+006 1.000788306732e+006 1.000819157786e+006 1.000579515458e+006 9.999078408506e+005 1.000044579955e+006 1.000251425604e+006 1.000705719674e+006 1.000118730528e+006 1.000200746714e+006 9.999004221842e+005 1.000377136495e+006 1.000110632564e+006 1.000634486293e+006 1.000900788168e+006 1.000678690563e+006 1.000676449886e+006 1.000730512696e+006 1.000699446259e+006 1.000711540445e+006 1.000808026785e+006 1.000723716090e+006 1.000293971356e+006 1.000216320002e+006 1.000266851812e+006 1.000231104410e+006 1.000640664980e+006 1.000245600775e+006 1.000638193580e+006 1.000046828059e+006 1.000658154561e+006 1.000668878325e+006 1.000812278358e+006 1.000255670493e+006 1.000204799386e+006 1.000253606130e+006 1.000336290311e+006 1.000336035043e+006 1.000414440483e+006 1.000410806670e+006 1.000779707869e+006 1.000662297959e+006 1.000210874953e+006 1.000216676954e+006 1.000227752193e+006 1.000240414678e+006 1.000648657038e+006 1.000649639304e+006 
        </DataArray>
        <DataArray type="Float64" Name="MEAN_PRESSURE" format="ascii">