<?xml version="1.0"?>
<VTKFile type="UnstructuredGrid" version="0.1" byte_order="LittleEndian">
  <UnstructuredGrid>
    <Piece NumberOfPoints="963" NumberOfCells="1758">
      <Points>
        <DataArray type="Float64" NumberOfComponents="3" format="ascii">
          1.600262034769e+002 1.257989505921e+001 0.000000000000e+000
          1.635346199106e+002 2.000000000000e+001 0.000000000000e+000
          1.554515002484e+002 2.000000000000e+001 0.000000000000e+000
          3.459306441575e+000 1.667621982453e+001 0.000000000000e+000
          3.062266634850e+000 1.705413688405e+001 0.000000000000e+000
          2.873380769063e+000 1.650527725632e+001 0.000000000000e+000
          1.514088444034e+000 1.865189448105e+001 0.000000000000e+000
          1.967902677551e+000 1.834103489750e+001 0.000000000000e+000
          2.034564522234e+000 1.890806711991e+001 0.000000000000e+000
          2.478275273162e+000 1.702762299110e+001 0.000000000000e+000
          2.952621433467e+000 1.774357373580e+001 0.000000000000e+000
          2.237893542067e+000 1.782457469610e+001 0.000000000000e+000
          3.313583922780e+000 3.274674552047e+000 0.000000000000e+000
          2.561432712787e+000 3.156040447793e+000 0.000000000000e+000
          3.047531989640e+000 2.714594415171e+000 0.000000000000e+000
          2.750804692284e+000 3.936058190693e+000 0.000000000000e+000
          2.599039179818e+000 2.451529939148e+000 0.000000000000e+000
          3.139686649742e+000 2.186924052088e+000 0.000000000000e+000
          1.919984553221e+000 3.358010194268e+000 0.000000000000e+000
          1.960900304591e+000 2.773319745251e+000 0.000000000000e+000
          1.894565400391e+000 1.733316857565e+001 0.000000000000e+000
          0.000000000000e+000 1.538461538461e+001 0.000000000000e+000
          5.816229249735e-001 1.567919247147e+001 0.000000000000e+000
          0.000000000000e+000 1.589743589743e+001 0.000000000000e+000
          9.766405669483e+001 2.000000000000e+001 0.000000000000e+000
          1.010672711393e+002 1.500000000000e+001 0.000000000000e+000
          1.029329279907e+002 2.000000000000e+001 0.000000000000e+000
          9.588503785413e+001 1.500000000000e+001 0.000000000000e+000
          1.039231647117e+002 1.000000000000e+001 0.000000000000e+000
          9.860830811271e+001 1.000000000000e+001 0.000000000000e+000
          1.010672711397e+002 5.000000000000e+000 0.000000000000e+000
          9.766405669557e+001 0.000000000000e+000 0.000000000000e+000
          1.029329279915e+002 0.000000000000e+000 0.000000000000e+000
          9.588503785449e+001 5.000000000000e+000 0.000000000000e+000
          7.892434178002e+001 2.000000000000e+001 0.000000000000e+000
          8.173808356948e+001 1.500000000000e+001 0.000000000000e+000
          8.328058896910e+001 2.000000000000e+001 0.000000000000e+000
          7.679274808893e+001 1.514423393202e+001 0.000000000000e+000
          7.970503892166e+001 1.000000000000e+001 0.000000000000e+000
          8.409930620613e+001 1.000000000000e+001 0.000000000000e+000
          8.173808356980e+001 5.000000000000e+000 0.000000000000e+000
          7.892434178065e+001 0.000000000000e+000 0.000000000000e+000
          8.328058896976e+001 0.000000000000e+000 0.000000000000e+000
          7.679274808925e+001 4.855766067979e+000 0.000000000000e+000
          1.084583939765e+002 2.000000000000e+001 0.000000000000e+000
          1.122011528880e+002 1.500000000000e+001 0.000000000000e+000
          1.142529496098e+002 2.000000000000e+001 0.000000000000e+000
          1.065018792644e+002 1.500000000000e+001 0.000000000000e+000
          1.153419838410e+002 1.000000000000e+001 0.000000000000e+000
          1.094968549120e+002 1.000000000000e+001 0.000000000000e+000
          1.122011528884e+002 5.000000000000e+000 0.000000000000e+000
          1.084583939773e+002 0.000000000000e+000 0.000000000000e+000
          1.142529496106e+002 0.000000000000e+000 0.000000000000e+000
          1.065018792648e+002 5.000000000000e+000 0.000000000000e+000
          1.181779812237e+002 1.500000000000e+001 0.000000000000e+000
          1.203297004775e+002 2.000000000000e+001 0.000000000000e+000
          1.214717707847e+002 1.000000000000e+001 0.000000000000e+000
          1.181779812242e+002 5.000000000000e+000 0.000000000000e+000
          1.203297004784e+002 0.000000000000e+000 0.000000000000e+000
          7.477039199538e+001 2.000000000000e+001 0.000000000000e+000
          7.551483469771e+001 1.000000000000e+001 0.000000000000e+000
          7.296959467356e+001 1.385646386579e+001 0.000000000000e+000
          7.477039199599e+001 0.000000000000e+000 0.000000000000e+000
          7.296959467379e+001 6.143536134207e+000 0.000000000000e+000
          6.918477198508e+001 1.366665532880e+001 0.000000000000e+000
          6.746477463053e+001 1.000000000000e+001 0.000000000000e+000
          7.151921701478e+001 1.000000000000e+001 0.000000000000e+000
          6.918477198529e+001 6.333344671202e+000 0.000000000000e+000
          9.263986346551e+001 2.000000000000e+001 0.000000000000e+000
          9.094345943471e+001 1.500000000000e+001 0.000000000000e+000
          9.354026529380e+001 1.000000000000e+001 0.000000000000e+000
          9.263986346623e+001 0.000000000000e+000 0.000000000000e+000
          9.094345943506e+001 5.000000000000e+000 0.000000000000e+000
          1.244344522558e+002 1.503312574389e+001 0.000000000000e+000
          1.267023895482e+002 2.000000000000e+001 0.000000000000e+000
          1.285510028831e+002 1.020485663255e+001 0.000000000000e+000
          1.244344522563e+002 5.033125743893e+000 0.000000000000e+000
          1.267023895491e+002 0.000000000000e+000 0.000000000000e+000
          8.623136018348e+001 1.500000000000e+001 0.000000000000e+000
          8.784898578901e+001 2.000000000000e+001 0.000000000000e+000
          8.870757443665e+001 1.000000000000e+001 0.000000000000e+000
          8.623136018382e+001 5.000000000000e+000 0.000000000000e+000
          8.784898578969e+001 0.000000000000e+000 0.000000000000e+000
          4.872472752737e+000 0.000000000000e+000 0.000000000000e+000
          4.204479229380e+000 6.412840757122e-001 0.000000000000e+000
          4.157376851380e+000 0.000000000000e+000 0.000000000000e+000
          5.192892237051e+000 7.280355562789e-001 0.000000000000e+000
          1.306630304579e+000 6.212843344151e-001 0.000000000000e+000
          1.050228457081e+000 0.000000000000e+000 0.000000000000e+000
          1.614006202528e+000 0.000000000000e+000 0.000000000000e+000
          1.266763055794e+001 1.554696422866e+001 0.000000000000e+000
          1.263589100638e+001 1.657720348306e+001 0.000000000000e+000
          1.174268578662e+001 1.633018318031e+001 0.000000000000e+000
          6.588835695415e+000 7.505681085529e+000 0.000000000000e+000
          6.456871838389e+000 6.658671683861e+000 0.000000000000e+000
          7.208099140752e+000 7.038822846307e+000 0.000000000000e+000
          4.412623338166e+000 9.138856431549e+000 0.000000000000e+000
          4.024185797397e+000 8.708923235630e+000 0.000000000000e+000
          4.601447447338e+000 8.507292699647e+000 0.000000000000e+000
          5.325995059827e-001 6.308307298123e+000 0.000000000000e+000
          0.000000000000e+000 6.666666666655e+000 0.000000000000e+000
          0.000000000000e+000 6.153846153835e+000 0.000000000000e+000
          3.986461521768e+000 8.146114708182e+000 0.000000000000e+000
          2.411603373059e+000 6.510912162016e+000 0.000000000000e+000
          1.807525763324e+000 6.938080373464e+000 0.000000000000e+000
          1.686779352680e+000 6.178928843543e+000 0.000000000000e+000
          2.510760620997e+000 7.229076682239e+000 0.000000000000e+000
          3.166991983438e+000 6.906135870389e+000 0.000000000000e+000
          3.452788915829e+000 6.276851216781e+000 0.000000000000e+000
          3.340122000742e+000 5.656365440432e+000 0.000000000000e+000
          4.047936562877e+000 5.873561587395e+000 0.000000000000e+000
          1.802463974828e+000 1.292744708026e+001 0.000000000000e+000
          1.383967161336e+000 1.330299552906e+001 0.000000000000e+000
          1.329690820161e+000 1.266495373033e+001 0.000000000000e+000
          2.267922292389e+000 1.431116835808e+001 0.000000000000e+000
          2.854613987538e+000 1.466581611369e+001 0.000000000000e+000
          2.339869278674e+000 1.493776402241e+001 0.000000000000e+000
          4.690956878046e+000 3.115726773737e+000 0.000000000000e+000
          4.014773718330e+000 2.850429494150e+000 0.000000000000e+000
          4.643493383296e+000 2.293565471327e+000 0.000000000000e+000
          5.186083944243e+000 1.661927139510e+000 0.000000000000e+000
          5.452965511439e+000 2.679881546544e+000 0.000000000000e+000
          5.360460104304e+000 3.539902157655e+000 0.000000000000e+000
          6.197986304192e+000 3.115706366113e+000 0.000000000000e+000
          7.929356606585e-001 1.634705420870e+001 0.000000000000e+000
          1.222819867503e+000 1.599517159419e+001 0.000000000000e+000
          1.215723647926e+000 1.546209040954e+001 0.000000000000e+000
          1.770601276021e+000 1.521217632514e+001 0.000000000000e+000
          1.242830150061e+000 1.493919370237e+001 0.000000000000e+000
          1.166444124506e+000 4.610115997312e+000 0.000000000000e+000
          1.851620547934e+000 4.486892013458e+000 0.000000000000e+000
          1.494152702314e+000 5.145235789232e+000 0.000000000000e+000
          1.353088107040e+000 4.090803091641e+000 0.000000000000e+000
          3.802567455935e+000 5.084697985980e+000 0.000000000000e+000
          1.014840185783e+000 5.494768572296e+000 0.000000000000e+000
          8.831064584820e-001 5.109311190608e+000 0.000000000000e+000
          1.727903958959e+000 1.618384478933e+001 0.000000000000e+000
          1.343261525342e+000 1.651800241408e+001 0.000000000000e+000
          3.308120627291e+000 8.593311644828e+000 0.000000000000e+000
[...]
      <PointData Scalars="LIQUID_PRESSURE">
        <DataArray type="Float64" Name="LIQUID_PRESSURE" format="ascii">
          1.006898091596e+006 1.006463684444e+006 1.007776739883e+006 1.040883249942e+006 1.040996233694e+006 1.041178381266e+006 1.041215197008e+006 1.041869678422e+006 1.041926911222e+006 1.041811646556e+006 1.041067155744e+006 1.041935733813e+006 1.040783963302e+006 1.041655053483e+006 1.040965485320e+006 1.041301847449e+006 1.041618997460e+006 1.040847710223e+006 1.041842272088e+006 1.041925418492e+006 1.041750379116e+006 1.041691984077e+006 1.041140030816e+006 1.041678882422e+006 1.025492903317e+006 1.024527532806e+006 1.024000748192e+006 1.025826420603e+006 1.023696711038e+006 1.025243327645e+006 1.024526722226e+006 1.025492013572e+006 1.024004524663e+006 1.025826711036e+006 1.030598721062e+006 1.029794629925e+006 1.029402027540e+006 1.031084749614e+006 1.030455840234e+006 1.029079151800e+006 1.029794350246e+006 1.030598577766e+006 1.029401852763e+006 1.031085610619e+006 1.022298328687e+006 1.021168261119e+006 1.020498570344e+006 1.022798676587e+006 1.020086196204e+006 1.022032491555e+006 1.021180919175e+006 1.022282363417e+006 1.020541714044e+006 1.022797855244e+006 1.019567684606e+006 1.018413352663e+006 1.018131029967e+006 1.019505068501e+006 1.018400612428e+006 1.031586001275e+006 1.031326311132e+006 1.031961993358e+006 1.031588810582e+006 1.031964383713e+006 1.032653592301e+006 1.033349118791e+006 1.032522151100e+006 1.032646887351e+006 1.027127230076e+006 1.027332963778e+006 1.026783561963e+006 1.027127362584e+006 1.027332907643e+006 1.017282188539e+006 1.016880941613e+006 1.016168343826e+006 1.017432093279e+006 1.016619222597e+006 1.028822100982e+006 1.028028317252e+006 1.027953530917e+006 1.028822113160e+006 1.028028346963e+006 1.041358310952e+006 1.041752259479e+006 1.041636518101e+006 1.040930374286e+006 1.040934534165e+006 1.040776280328e+006 1.041438601275e+006 1.041059525910e+006 1.040876963149e+006 1.040966105384e+006 1.041747057598e+006 1.041745432912e+006 1.041097773358e+006 1.041730449437e+006 1.041535771723e+006 1.041558658925e+006 1.041131986172e+006 1.041630590380e+006 1.041596012442e+006 1.041499562524e+006 1.041782489072e+006 1.041676552542e+006 1.041550654453e+006 1.041606087042e+006 1.040813271987e+006 1.040899641244e+006 1.040796443797e+006 1.041617798446e+006 1.041635245164e+006 1.040996811941e+006 1.040940302535e+006 1.041926891500e+006 1.041163959848e+006 1.041862617127e+006 1.041460190609e+006 1.041516831400e+006 1.041523849415e+006 1.040917438884e+006 1.040770910343e+006 1.040743700470e+006 1.041463823585e+006 1.040921331095e+006 1.040776088463e+006 1.040785690929e+006 1.041591200043e+006 1.040810025398e+006 1.040773414301e+006 1.041691884065e+006 1.041167262232e+006 1.040917609286e+006 1.041224829918e+006 1.040765582806e+006 1.040803201669e+006 1.041471418510e+006 1.040875872562e+006 1.040819487897e+006 1.041424122538e+006 1.040822156726e+006 1.040879038454e+006 1.040905598121e+006 1.040865379213e+006 1.040927614447e+006 1.040793282829e+006 1.041010883051e+006 1.041016530976e+006 1.040897710848e+006 1.041125058489e+006 1.041618028881e+006 1.041476980228e+006 1.041679014185e+006 1.040837560022e+006 1.041460022267e+006 1.041961836844e+006 1.041541431424e+006 1.041350507964e+006 1.040968119337e+006 1.040830889370e+006 1.041234352446e+006 1.041124558961e+006 1.040970769062e+006 1.040808186251e+006 1.040805138236e+006 1.041518624270e+006 1.041660669274e+006 1.041471471978e+006 1.041662645368e+006 1.041877263651e+006 1.041274579686e+006 1.041767267489e+006 1.041134403848e+006 1.040774637525e+006 1.041448589269e+006 1.040892188527e+006 1.041324759495e+006 1.041422925030e+006 1.041629751047e+006 1.040723486905e+006 1.041702101639e+006 1.041636220736e+006 1.041023474834e+006 1.041807788182e+006 1.040880444172e+006 1.041018143008e+006 1.040842375078e+006 1.040923271343e+006 1.041574562451e+006 1.041897558663e+006 1.041271106449e+006 1.041532470723e+006 1.041911514730e+006 1.041890993180e+006 1.040749431265e+006 1.041868430249e+006 1.041128925591e+006 1.041678045767e+006 1.040940566214e+006 1.040916705106e+006 1.041644707080e+006 1.041909038334e+006 1.041519599100e+006 1.040820077011e+006 1.040735391844e+006 1.040836209959e+006 1.041349198053e+006 1.040834435348e+006 1.040865529977e+006 1.040983470142e+006 1.040746613151e+006 1.041314492336e+006 1.041908537215e+006 1.034087565517e+006 1.034084213657e+006 1.041525951879e+006 1.041889386913e+006 1.040704305229e+006 1.041215360506e+006 1.040788588448e+006 1.041610616537e+006 1.041180723256e+006 1.041790221899e+006 1.040788116149e+006 1.041231928041e+006 1.040788257236e+006 1.041686945358e+006 1.041728339109e+006 1.040836463145e+006 1.041875883781e+006 1.040787751192e+006 1.040845559171e+006 1.041364776070e+006 1.040943208475e+006 1.041065750424e+006 1.041121932735e+006 1.041674163346e+006 1.041667246454e+006 1.040762497997e+006 1.041995831092e+006 1.041374481249e+006 1.041116648168e+006 1.041151300334e+006 1.041660178833e+006 1.041651658020e+006 1.041658659382e+006 1.041655688294e+006 1.041252149273e+006 1.041494186112e+006 1.041293359581e+006 1.040748979108e+006 1.041053059341e+006 1.041543270716e+006 1.041507921058e+006 1.041639852137e+006 1.041657394426e+006 1.041368064573e+006 1.041655699760e+006 1.041296784312e+006 1.041631484829e+006 1.041450820408e+006 1.041679720353e+006 1.041659206556e+006 1.034728802249e+006 1.034295476649e+006 1.034455682477e+006 1.035318879399e+006 1.034344791145e+006 1.034701234601e+006 1.034220322596e+006 1.034768843294e+006 1.034494271651e+006 1.035339975086e+006 1.034372970632e+006 1.034717149213e+006 1.036122560142e+006 1.035549082181e+006 1.035544253454e+006 1.036793319085e+006 1.035637631535e+006 1.035938663650e+006 1.035546224831e+006 1.036128221954e+006 1.035524759099e+006 1.036792818517e+006 1.035629042806e+006 1.035940745222e+006 1.038953908998e+006 1.038861928590e+006 1.038663468103e+006 1.039133245429e+006 1.038627639052e+006 1.038951032872e+006 1.038861936953e+006 1.038953934069e+006 1.038663419123e+006 1.039133312962e+006 1.038627642071e+006 1.038951080263e+006 1.038220587132e+006 1.038407155925e+006 1.037939688924e+006 1.038535641250e+006 1.037811634388e+006 1.038286633194e+006 1.038407166880e+006 1.038220675691e+006 1.037939703351e+006 1.038535600304e+006 1.037811682565e+006 1.038286623092e+006 1.039834438849e+006 1.039606294308e+006 1.039304718419e+006 1.039703086892e+006 1.039606271556e+006 1.039834611644e+006 1.039304799865e+006 1.039702464209e+006 1.037826539295e+006 1.037154216582e+006 1.037511698535e+006 1.037618569237e+006 1.037412390957e+006 1.037762301299e+006 1.037154182831e+006 1.037826567569e+006 1.037511866583e+006 1.037618673156e+006 1.037412419518e+006 1.037762320083e+006 1.036477354288e+006 1.036562975411e+006 1.036591895073e+006 1.036475874515e+006 1.036563022901e+006 1.036591292810e+006 1.039287608377e+006 1.039521847702e+006 1.039206237789e+006 1.039287719223e+006 1.039522036650e+006 1.039206334277e+006 1.039249151001e+006 1.039249075242e+006 1.036612121575e+006 1.036822847300e+006 1.036054853276e+006 1.036833013738e+006 1.036611237195e+006 1.036833106569e+006 1.038642051457e+006 1.038686438532e+006 1.038411355733e+006 1.038899974813e+006 1.038642039672e+006 1.038899983875e+006 1.035821895250e+006 1.035848399207e+006 1.035823603577e+006 1.039684000779e+006 1.039886342787e+006 1.039887268752e+006 1.039684929266e+006 1.037397104954e+006 1.037234225868e+006 1.037234299075e+006 1.038270619015e+006 1.037985578196e+006 1.038270641160e+006 1.037946335672e+006 1.037747627356e+006 1.037946336784e+006 1.039401504052e+006 1.039401491026e+006 1.038996592146e+006 1.039256241442e+006 1.039256299747e+006 1.035460477248e+006 1.034823307369e+006 1.035457708372e+006 1.039299692118e+006 1.034324969777e+006 1.034045820474e+006 1.034321494323e+006 1.033500950773e+006 1.033191495345e+006 1.033466573685e+006 1.033169232038e+006 1.040879344239e+006 1.040967876068e+006 1.041178712948e+006 1.041318776954e+006 1.041159681324e+006 1.041464440654e+006 1.041915768510e+006 1.041227504390e+006 1.041901842151e+006 1.041408592279e+006 1.041089100890e+006 1.041442985727e+006 1.041242570110e+006 1.040968873483e+006 1.008894036613e+006 1.010590358919e+006 1.007590746493e+006 1.041634000857e+006 1.041033758164e+006 1.041460949836e+006 1.041633653453e+006 1.041345001190e+006 1.041655353361e+006 1.040732650832e+006 1.041450069889e+006 1.041369616960e+006 1.041904816308e+006 1.041560209866e+006 1.040935228856e+006 1.040988720635e+006 1.041210001077e+006 1.041884029268e+006 1.040997954569e+006 1.041663216433e+006 1.041211451733e+006 1.041623910370e+006 1.040960869170e+006 1.040890799027e+006 1.040917693054e+006 1.041416472743e+006 1.040949221145e+006 1.041627160749e+006 1.041299739468e+006 1.041304796540e+006 1.041564772821e+006 1.041367824558e+006 1.041023913993e+006 1.041552407332e+006 1.041248271950e+006 1.040857472024e+006 1.041318899097e+006 1.041572788862e+006 1.041065394386e+006 1.040707297408e+006 1.040954924665e+006 1.041196046021e+006 1.041041620828e+006 1.040979878816e+006 1.041301456886e+006 1.041396769973e+006 1.041636726422e+006 1.041136145383e+006 1.041301468669e+006 1.040733243986e+006 1.041749142324e+006 1.040815435392e+006 1.041315923880e+006 1.040881285132e+006 1.041001990704e+006 1.041483522245e+006 1.040826226887e+006 1.040872294750e+006 1.041616058967e+006 1.040762563298e+006 1.040786779075e+006 1.041359661560e+006 1.041395997558e+006 1.040905280250e+006 1.040866478612e+006 1.040834285042e+006 1.041029891688e+006 1.040688092499e+006 1.041150784799e+006 1.041312682937e+006 1.041223609644e+006 1.040744720239e+006 1.040895817662e+006 1.041322476625e+006 1.041783818527e+006 1.041498175300e+006 1.040886379785e+006 1.040948305148e+006 1.040818303656e+006 1.040804050429e+006 1.041383444367e+006 1.041686807976e+006 1.040716309946e+006 1.040759504240e+006 1.041477767338e+006 1.041926379897e+006 1.041332074002e+006 1.040822214333e+006 1.041441177100e+006 1.041519666616e+006 1.041160796131e+006 1.040887098096e+006 1.041566013998e+006 1.041036251125e+006 1.041224069640e+006 1.041272590293e+006 1.041268710058e+006 1.040738680755e+006 1.040877515317e+006 1.041349624468e+006 1.041670038333e+006 1.041172903412e+006 1.040770740086e+006 1.040953384596e+006 1.041237817006e+006 1.041286219254e+006 1.041809881646e+006 1.041078049295e+006 1.040770923301e+006 1.041437768180e+006 1.041605485690e+006 1.041414208188e+006 1.041186779237e+006 1.040740155273e+006 1.041199043873e+006 1.041700899889e+006 1.041125653460e+006 1.041722276117e+006 1.041641533741e+006 1.041446760213e+006 1.040785423560e+006 1.041590126851e+006 1.041850820246e+006 1.040803900766e+006 1.040924721127e+006 1.041578345048e+006 1.041122461524e+006 1.040943282171e+006 1.040990908480e+006 1.041645730996e+006 1.041160441606e+006 1.041536859380e+006 1.041816881685e+006 1.040878437563e+006 1.041026400110e+006 1.041332347501e+006 1.040933797797e+006 1.041129066750e+006 1.041350651123e+006 1.040706128910e+006 1.040816987094e+006 1.040964912754e+006 1.041793016722e+006 1.041949415301e+006 1.040710893992e+006 1.040747745851e+006 1.040849797353e+006 1.041358483105e+006 1.041084649376e+006 1.041120391819e+006 1.041913129225e+006 1.041711417587e+006 1.041268098621e+006 1.041197750752e+006 1.041425676070e+006 1.041641165115e+006 1.041424173249e+006 1.041354923546e+006 1.040877564764e+006 1.041003962573e+006 1.040746922854e+006 1.041935820831e+006 1.040716606320e+006 1.041458674470e+006 1.041433397646e+006 1.041117742375e+006 1.040760335976e+006 1.041414366196e+006 1.040798174993e+006 1.040738417965e+006 1.041052066322e+006 1.041532537697e+006 1.041056361658e+006 1.041387863268e+006 1.041339152907e+006 1.041055044581e+006 1.041674997267e+006 1.040867318413e+006 1.040647605316e+006 1.041754095550e+006 1.041130046396e+006 1.041836094437e+006 1.040882203563e+006 1.041416832575e+006 1.041216741494e+006 1.040782437527e+006 1.041479827897e+006 1.040923650077e+006 1.041486707149e+006 1.040863057239e+006 1.041152565186e+006 1.041369194742e+006 1.040698945154e+006 1.040738028289e+006 1.041333479869e+006 1.004922977480e+006 1.004308846809e+006 1.003360026526e+006 1.041048563667e+006 1.041209201532e+006 1.041771691305e+006 1.041542932763e+006 1.040963971271e+006 1.041650721769e+006 1.041058212973e+006 1.040863969947e+006 1.041552283755e+006 1.041066756502e+006 1.032979149147e+006 1.032995715175e+006 1.041209601448e+006 1.041652448050e+006 1.041396640029e+006 1.041078150931e+006 1.041356033546e+006 1.040798041055e+006 1.041404941383e+006 1.040915675021e+006 1.041480774402e+006 1.041211421527e+006 1.041207534145e+006 1.041018337136e+006 1.040972912913e+006 1.006975389986e+006 1.006497663839e+006 1.041546915943e+006 1.040779539731e+006 1.040858719089e+006 1.041364509204e+006 1.040862921031e+006 1.041087480492e+006 1.039924421302e+006 1.039941863444e+006 1.039919525985e+006 1.039936714134e+006 1.040874422552e+006 1.040980080886e+006 1.040766663006e+006 1.040747379308e+006 1.039600310450e+006 1.039775373799e+006 1.039764071915e+006 1.039773861240e+006 1.041393448029e+006 1.040948622522e+006 1.041145454117e+006 1.041156332767e+006 1.041178942812e+006 1.040832666116e+006 1.041682076210e+006 1.041749935988e+006 1.040780903987e+006 1.040687672821e+006 1.041907806939e+006 1.040796397899e+006 1.040787768878e+006 1.041326001993e+006 1.005832472258e+006 1.004937794850e+006 1.041405611546e+006 1.041907047321e+006 1.041510499936e+006 1.041643817566e+006 1.041452635500e+006 1.041350852432e+006 1.040864293616e+006 1.032258692798e+006 1.032248124349e+006 1.041263287421e+006 1.041458103453e+006 1.040612578946e+006 1.041173329863e+006 1.041101295534e+006 1.041380966925e+006 1.041727747854e+006 1.041432419284e+006 1.040615476667e+006 1.002036830165e+006 1.001720308139e+006 1.041271194284e+006 1.041671682918e+006 1.041636698257e+006 1.040859878863e+006 1.041550664316e+006 1.041426116561e+006 1.041643407404e+006 1.041126393634e+006 1.039863526017e+006 1.039950288718e+006 1.039900794800e+006 1.040381012352e+006 1.040195488036e+006 1.039934755435e+006 1.040403672779e+006 1.040137815311e+006 1.040216394770e+006 1.040283913040e+006 1.040077600649e+006 1.040261181237e+006 1.040248917228e+006 1.040430981848e+006 1.040287485924e+006 1.040444622469e+006 1.040294939934e+006 1.040491536500e+006 1.040426514923e+006 1.040609090355e+006 1.040617748453e+006 1.040605856105e+006 1.040611483005e+006 1.040564724644e+006 1.040560275871e+006 1.040404341773e+006 1.040562573826e+006 1.040407397717e+006 1.040965399573e+006 1.040740589608e+006 1.040851810931e+006 1.040744695039e+006 1.040855420730e+006 1.040024385468e+006 1.039952238007e+006 1.040134358879e+006 1.040130603048e+006 1.039954548503e+006 1.040024005112e+006 1.040125648666e+006 1.040101759260e+006 1.040360389033e+006 1.040528895176e+006 1.040368089360e+006 1.040554535303e+006 1.040280943091e+006 1.040383892737e+006 1.040275143515e+006 1.040379986665e+006 1.040651634572e+006 1.040653770991e+006 1.040652287970e+006 1.040650231202e+006 1.040444362530e+006 1.040294716482e+006 1.040566990923e+006 1.040723177621e+006 1.040355393372e+006 1.040500718155e+006 1.040295675184e+006 1.040444614632e+006 1.040561655006e+006 1.040722035232e+006 1.040356434000e+006 1.040502132376e+006 1.040463484255e+006 1.040510932257e+006 1.040613373342e+006 1.040459219671e+006 1.040499376274e+006 1.040613283725e+006 1.040969764060e+006 1.040812733464e+006 1.040863762095e+006 1.040959659906e+006 1.040801188612e+006 1.040861541771e+006 1.040470904400e+006 1.040840737805e+006 1.040466050683e+006 1.040478161969e+006 1.040899388466e+006 1.040496729279e+006 1.041117509257e+006 1.040602458769e+006 1.041095596161e+006 1.040635572469e+006 1.040515297351e+006 1.040911850530e+006 1.040519798422e+006 1.040899917115e+006 1.039978647995e+006 1.040000944174e+006 1.040027315533e+006 1.039979694811e+006 1.040001013143e+006 1.040027764245e+006 1.040085241720e+006 1.040286019326e+006 1.040083541719e+006 1.040286567357e+006 1.040553167163e+006 1.040558488988e+006 1.040600476080e+006 1.040596598236e+006 1.040351678491e+006 1.040333340077e+006 1.040836111278e+006 1.041342265004e+006 1.040835207983e+006 1.041192460188e+006 1.040895206147e+006 1.040873858942e+006 1.040719042367e+006 1.040730726917e+006 1.040626630430e+006 1.041034588269e+006 1.040654245849e+006 1.041023233006e+006 1.040640460482e+006 1.040791145675e+006 1.040520352878e+006 1.040772563064e+006 1.040503555533e+006 1.040555348407e+006 1.041414825540e+006 1.040658485773e+006 1.040719102897e+006 1.041416304007e+006 1.041303374625e+006 1.041253742736e+006 1.041014007547e+006 1.040974766197e+006 1.041050936979e+006 1.041020845138e+006 1.040997987768e+006 1.040694987139e+006 1.040907333041e+006 1.040549656887e+006 1.040906954412e+006 1.040751488743e+006 1.040649614907e+006 1.040768766422e+006 1.040753774974e+006 1.040698162298e+006 1.041331862601e+006 1.041563711960e+006 1.040962511101e+006 1.041241986470e+006 1.041103578333e+006 1.041166303939e+006 1.041226381030e+006 1.000000000000e+006 1.000000000000e+006 1.001721127406e+006 1.041390116075e+006 1.041714702807e+006 1.041081284736e+006 1.041556740170e+006 1.041518885611e+006 1.040937334913e+006 1.041640040079e+006 1.041198219585e+006 1.041613238040e+006 1.040958972054e+006 1.040740046006e+006 1.040719090362e+006 1.040927793879e+006 1.041093142732e+006 1.040849885385e+006 1.041281000344e+006 1.041639968020e+006 1.041034009137e+006 1.040765173461e+006 1.040877709521e+006 1.041361794809e+006 1.041129049497e+006 1.041429232585e+006 1.032023988822e+006 1.032022996481e+006 1.041785596638e+006 1.039529701935e+006 1.039530208967e+006 1.040836726513e+006 1.041087686975e+006 1.041541152323e+006 1.040714203622e+006 1.040964507100e+006 1.040758509509e+006 1.041232298860e+006 1.040964613402e+006 1.040704033750e+006 1.040922841511e+006 1.040894830571e+006 1.011750062025e+006 1.010823454924e+006 1.041574326939e+006 1.041237008962e+006 1.012182762794e+006 1.041625840904e+006 1.041150905255e+006 1.041637512334e+006 1.041039517868e+006 1.041180312247e+006 1.003364062107e+006 1.041733143044e+006 1.041637585801e+006 1.040844380306e+006 1.040828748019e+006 1.041699130263e+006 1.039924566090e+006 1.039922932476e+006 1.041750020004e+006 1.041328353166e+006 1.041160100121e+006 1.041190294300e+006 1.041628601611e+006 1.041469252503e+006 1.040915029165e+006 1.041204492358e+006 1.041288216936e+006 1.041302200495e+006 1.041016650621e+006 1.040972177418e+006 1.041654743215e+006 1.041399870031e+006 1.041673408367e+006 1.041527194739e+006 1.041242714153e+006 1.040868234040e+006 1.040712071849e+006 1.013606251735e+006 1.041251150193e+006 1.005656751043e+006 1.040777362104e+006 1.040766496305e+006 1.041009808044e+006 1.041008662248e+006 1.041171970807e+006 1.041679866992e+006 1.041069109450e+006 1.041473519961e+006 1.041629134812e+006 1.041614934864e+006 1.041653665659e+006 1.041673038790e+006 1.041578137606e+006 1.012525205859e+006 1.014496082677e+006 1.010199567927e+006 1.015732629696e+006 1.041448878168e+006 1.014701328396e+006 1.009075602534e+006 1.040859543566e+006 1.041431348223e+006 1.041583274976e+006 1.041601590303e+006 1.014752085374e+006 1.041101671883e+006 1.041108550335e+006 1.039589154106e+006 1.039589106213e+006 1.040175532667e+006 1.040172904840e+006 1.041664206609e+006 1.041446625808e+006 1.040047029022e+006 1.040047580258e+006 1.039959988261e+006 1.039978937988e+006 1.041432882870e+006 1.041555405016e+006 
        </DataArray>
        <DataArray type="Float64" Name="MEAN_PRESSURE" format="ascii">