<?xml version="1.0"?>
<VTKFile type="UnstructuredGrid" version="0.1" byte_order="LittleEndian">
  <UnstructuredGrid>
    <Piece NumberOfPoints="963" NumberOfCells="1758">
      <Points>
        <DataArray type="Float64" NumberOfComponents="3" format="ascii">
          1.600262034769e+002 1.257989505921e+001 0.000000000000e+000
          1.635346199106e+002 2.000000000000e+001 0.000000000000e+000
          1.554515002484e+002 2.000000000000e+001 0.000000000000e+000
          3.459306441575e+000 1.667621982453e+001 0.000000000000e+000
          3.062266634850e+000 1.705413688405e+001 0.000000000000e+000
          2.873380769063e+000 1.650527725632e+001 0.000000000000e+000
          1.514088444034e+000 1.865189448105e+001 0.000000000000e+000
          1.967902677551e+000 1.834103489750e+001 0.000000000000e+000
          2.034564522234e+000 1.890806711991e+001 0.000000000000e+000
          2.478275273162e+000 1.702762299110e+001 0.000000000000e+000
          2.952621433467e+000 1.774357373580e+001 0.000000000000e+000
          2.237893542067e+000 1.782457469610e+001 0.000000000000e+000
          3.313583922780e+000 3.274674552047e+000 0.000000000000e+000
          2.561432712787e+000 3.156040447793e+000 0.000000000000e+000
          3.047531989640e+000 2.714594415171e+000 0.000000000000e+000
          2.750804692284e+000 3.936058190693e+000 0.000000000000e+000
          2.599039179818e+000 2.451529939148e+000 0.000000000000e+000
          3.139686649742e+000 2.186924052088e+000 0.000000000000e+000
          1.919984553221e+000 3.358010194268e+000 0.000000000000e+000
          1.960900304591e+000 2.773319745251e+000 0.000000000000e+000
          1.894565400391e+000 1.733316857565e+001 0.000000000000e+000
          0.000000000000e+000 1.538461538461e+001 0.000000000000e+000
          5.816229249735e-001 1.567919247147e+001 0.000000000000e+000
          0.000000000000e+000 1.589743589743e+001 0.000000000000e+000
          9.766405669483e+001 2.000000000000e+001 0.000000000000e+000
          1.010672711393e+002 1.500000000000e+001 0.000000000000e+000
          1.029329279907e+002 2.000000000000e+001 0.000000000000e+000
          9.588503785413e+001 1.500000000000e+001 0.000000000000e+000
          1.039231647117e+002 1.000000000000e+001 0.000000000000e+000
          9.860830811271e+001 1.000000000000e+001 0.000000000000e+000
          1.010672711397e+002 5.000000000000e+000 0.000000000000e+000
          9.766405669557e+001 0.000000000000e+000 0.000000000000e+000
          1.029329279915e+002 0.000000000000e+000 0.000000000000e+000
          9.588503785449e+001 5.000000000000e+000 0.000000000000e+000
          7.892434178002e+001 2.000000000000e+001 0.000000000000e+000
          8.173808356948e+001 1.500000000000e+001 0.000000000000e+000
          8.328058896910e+001 2.000000000000e+001 0.000000000000e+000
          7.679274808893e+001 1.514423393202e+001 0.000000000000e+000
          7.970503892166e+001 1.000000000000e+001 0.000000000000e+000
          8.409930620613e+001 1.000000000000e+001 0.000000000000e+000
          8.173808356980e+001 5.000000000000e+000 0.000000000000e+000
          7.892434178065e+001 0.000000000000e+000 0.000000000000e+000
          8.328058896976e+001 0.000000000000e+000 0.000000000000e+000
          7.679274808925e+001 4.855766067979e+000 0.000000000000e+000
          1.084583939765e+002 2.000000000000e+001 0.000000000000e+000
          1.122011528880e+002 1.500000000000e+001 0.000000000000e+000
          1.142529496098e+002 2.000000000000e+001 0.000000000000e+000
          1.065018792644e+002 1.500000000000e+001 0.000000000000e+000
          1.153419838410e+002 1.000000000000e+001 0.000000000000e+000
          1.094968549120e+002 1.000000000000e+001 0.000000000000e+000
          1.122011528884e+002 5.000000000000e+000 0.000000000000e+000
          1.084583939773e+002 0.000000000000e+000 0.000000000000e+000
          1.142529496106e+002 0.000000000000e+000 0.000000000000e+000
          1.065018792648e+002 5.000000000000e+000 0.000000000000e+000
          1.181779812237e+002 1.500000000000e+001 0.000000000000e+000
          1.203297004775e+002 2.000000000000e+001 0.000000000000e+000
          1.214717707847e+002 1.000000000000e+001 0.000000000000e+000
          1.181779812242e+002 5.000000000000e+000 0.000000000000e+000
          1.203297004784e+002 0.000000000000e+000 0.000000000000e+000
          7.477039199538e+001 2.000000000000e+001 0.000000000000e+000
          7.551483469771e+001 1.000000000000e+001 0.000000000000e+000
          7.296959467356e+001 1.385646386579e+001 0.000000000000e+000
          7.477039199599e+001 0.000000000000e+000 0.000000000000e+000
          7.296959467379e+001 6.143536134207e+000 0.000000000000e+000
          6.918477198508e+001 1.366665532880e+001 0.000000000000e+000
          6.746477463053e+001 1.000000000000e+001 0.000000000000e+000
          7.151921701478e+001 1.000000000000e+001 0.000000000000e+000
          6.918477198529e+001 6.333344671202e+000 0.000000000000e+000
          9.263986346551e+001 2.000000000000e+001 0.000000000000e+000
          9.094345943471e+001 1.500000000000e+001 0.000000000000e+000
          9.354026529380e+001 1.000000000000e+001 0.000000000000e+000
          9.263986346623e+001 0.000000000000e+000 0.000000000000e+000
          9.094345943506e+001 5.000000000000e+000 0.000000000000e+000
          1.244344522558e+002 1.503312574389e+001 0.000000000000e+000
          1.267023895482e+002 2.000000000000e+001 0.000000000000e+000
          1.285510028831e+002 1.020485663255e+001 0.000000000000e+000
          1.244344522563e+002 5.033125743893e+000 0.000000000000e+000
          1.267023895491e+002 0.000000000000e+000 0.000000000000e+000
          8.623136018348e+001 1.500000000000e+001 0.000000000000e+000
          8.784898578901e+001 2.000000000000e+001 0.000000000000e+000
          8.870757443665e+001 1.000000000000e+001 0.000000000000e+000
          8.623136018382e+001 5.000000000000e+000 0.000000000000e+000
          8.784898578969e+001 0.000000000000e+000 0.000000000000e+000
          4.872472752737e+000 0.000000000000e+000 0.000000000000e+000
          4.204479229380e+000 6.412840757122e-001 0.000000000000e+000
          4.157376851380e+000 0.000000000000e+000 0.000000000000e+000
          5.192892237051e+000 7.280355562789e-001 0.000000000000e+000
          1.306630304579e+000 6.212843344151e-001 0.000000000000e+000
          1.050228457081e+000 0.000000000000e+000 0.000000000000e+000
          1.614006202528e+000 0.000000000000e+000 0.000000000000e+000
          1.266763055794e+001 1.554696422866e+001 0.000000000000e+000
          1.263589100638e+001 1.657720348306e+001 0.000000000000e+000
          1.174268578662e+001 1.633018318031e+001 0.000000000000e+000
          6.588835695415e+000 7.505681085529e+000 0.000000000000e+000
          6.456871838389e+000 6.658671683861e+000 0.000000000000e+000
          7.208099140752e+000 7.038822846307e+000 0.000000000000e+000
          4.412623338166e+000 9.138856431549e+000 0.000000000000e+000
          4.024185797397e+000 8.708923235630e+000 0.000000000000e+000
          4.601447447338e+000 8.507292699647e+000 0.000000000000e+000
          5.325995059827e-001 6.308307298123e+000 0.000000000000e+000
          0.000000000000e+000 6.666666666655e+000 0.000000000000e+000
          0.000000000000e+000 6.153846153835e+000 0.000000000000e+000
          3.986461521768e+000 8.146114708182e+000 0.000000000000e+000
          2.411603373059e+000 6.510912162016e+000 0.000000000000e+000
          1.807525763324e+000 6.938080373464e+000 0.000000000000e+000
          1.686779352680e+000 6.178928843543e+000 0.000000000000e+000
          2.510760620997e+000 7.229076682239e+000 0.000000000000e+000
          3.166991983438e+000 6.906135870389e+000 0.000000000000e+000
          3.452788915829e+000 6.276851216781e+000 0.000000000000e+000
          3.340122000742e+000 5.656365440432e+000 0.000000000000e+000
          4.047936562877e+000 5.873561587395e+000 0.000000000000e+000
          1.802463974828e+000 1.292744708026e+001 0.000000000000e+000
          1.383967161336e+000 1.330299552906e+001 0.000000000000e+000
          1.329690820161e+000 1.266495373033e+001 0.000000000000e+000
          2.267922292389e+000 1.431116835808e+001 0.000000000000e+000
          2.854613987538e+000 1.466581611369e+001 0.000000000000e+000
          2.339869278674e+000 1.493776402241e+001 0.000000000000e+000
          4.690956878046e+000 3.115726773737e+000 0.000000000000e+000
          4.014773718330e+000 2.850429494150e+000 0.000000000000e+000
          4.643493383296e+000 2.293565471327e+000 0.000000000000e+000
          5.186083944243e+000 1.661927139510e+000 0.000000000000e+000
          5.452965511439e+000 2.679881546544e+000 0.000000000000e+000
          5.360460104304e+000 3.539902157655e+000 0.000000000000e+000
          6.197986304192e+000 3.115706366113e+000 0.000000000000e+000
          7.929356606585e-001 1.634705420870e+001 0.000000000000e+000
          1.222819867503e+000 1.599517159419e+001 0.000000000000e+000
          1.215723647926e+000 1.546209040954e+001 0.000000000000e+000
          1.770601276021e+000 1.521217632514e+001 0.000000000000e+000
          1.242830150061e+000 1.493919370237e+001 0.000000000000e+000
          1.166444124506e+000 4.610115997312e+000 0.000000000000e+000
          1.851620547934e+000 4.486892013458e+000 0.000000000000e+000
          1.494152702314e+000 5.145235789232e+000 0.000000000000e+000
          1.353088107040e+000 4.090803091641e+000 0.000000000000e+000
          3.802567455935e+000 5.084697985980e+000 0.000000000000e+000
          1.014840185783e+000 5.494768572296e+000 0.000000000000e+000
          8.831064584820e-001 5.109311190608e+000 0.000000000000e+000
          1.727903958959e+000 1.618384478933e+001 0.000000000000e+000
          1.343261525342e+000 1.651800241408e+001 0.000000000000e+000
          3.308120627291e+000 8.593311644828e+000 0.000000000000e+000
[...]
      <PointData Scalars="LIQUID_PRESSURE">
        <DataArray type="Float64" Name="LIQUID_PRESSURE" format="ascii">
          1.000517077909e+006 9.997915955158e+005 1.000210433369e+006 9.998731473531e+005 1.000013959281e+006 1.000205951169e+006 1.000139510613e+006 1.000715118564e+006 1.000753015654e+006 1.000744658897e+006 1.000109830229e+006 1.000792118113e+006 9.998053658702e+005 1.000588171315e+006 1.000000850663e+006 1.000274826259e+006 1.000584185545e+006 9.998760366923e+005 1.000687743103e+006 1.000751461852e+006 1.000598759847e+006 1.000648071313e+006 1.000279646618e+006 1.000643348414e+006 1.000230112836e+006 1.000229005251e+006 1.000225074536e+006 1.000230905014e+006 1.000224133934e+006 1.000229336211e+006 1.000229018815e+006 1.000230103860e+006 1.000225201247e+006 1.000230921949e+006 1.000248329941e+006 1.000243132770e+006 1.000244723164e+006 1.000251808483e+006 1.000252251404e+006 1.000241513430e+006 1.000243195097e+006 1.000248465116e+006 1.000244676730e+006 1.000251552807e+006 1.000220468343e+006 1.000215028848e+006 1.000212618410e+006 1.000221428147e+006 1.000210783549e+006 1.000219390422e+006 1.000215089278e+006 1.000220433014e+006 1.000213231132e+006 1.000221493899e+006 1.000207556119e+006 1.000202367700e+006 1.000202542991e+006 1.000208309327e+006 1.000201554447e+006 1.000261485602e+006 1.000246537070e+006 1.000243725846e+006 1.000261106762e+006 1.000244037653e+006 1.000237257600e+006 1.000242619941e+006 1.000281001197e+006 1.000237622365e+006 1.000239457043e+006 1.000235820737e+006 1.000237871493e+006 1.000239455114e+006 1.000235815153e+006 1.000199669545e+006 1.000198266641e+006 1.000191111669e+006 1.000197481618e+006 1.000203819756e+006 1.000246367544e+006 1.000236517463e+006 1.000237282475e+006 1.000246354912e+006 1.000236529134e+006 1.000505022705e+006 1.000659550226e+006 1.000535291074e+006 1.000061088775e+006 9.999133580153e+005 9.998232304879e+005 1.000315388685e+006 1.000359816146e+006 1.000158346808e+006 1.000240829385e+006 1.000803296076e+006 1.000760166506e+006 1.000245841107e+006 1.000788207798e+006 1.000490452419e+006 1.000601566132e+006 1.000287111522e+006 1.000722687221e+006 1.000684185859e+006 1.000469424147e+006 1.000711843733e+006 1.000547443631e+006 1.000417484502e+006 1.000579864639e+006 9.998305744682e+005 9.998450658405e+005 9.998101957204e+005 1.000568138957e+006 1.000505234322e+006 9.999565775735e+005 9.999015980086e+005 1.000814261645e+006 1.000211042258e+006 1.000794457711e+006 1.000553772393e+006 1.000504739321e+006 1.000587245936e+006 1.000050396613e+006 9.998825263834e+005 9.998408835203e+005 1.000469865917e+006 1.000081827378e+006 9.998086475308e+005 9.998073850401e+005 1.000464813889e+006 9.998123937529e+005 9.998177465119e+005 1.000503405803e+006 1.000073434191e+006 9.998841151220e+005 1.000148198369e+006 9.998363151229e+005 9.999421053967e+005 1.000363217595e+006 9.998633662972e+005 9.998011383737e+005 1.000419757795e+006 9.998021489965e+005 1.000007324055e+006 1.000058137880e+006 9.998504997661e+005 1.000074082635e+006 9.999015491970e+005 9.999384052742e+005 1.000060410366e+006 1.000045233194e+006 1.000151776939e+006 1.000563703174e+006 1.000582566699e+006 1.000583818702e+006 9.998326762652e+005 1.000340038607e+006 1.000784968816e+006 1.000504746706e+006 1.000501527652e+006 1.000040411501e+006 9.998475172138e+005 1.000227335998e+006 1.000039957079e+006 9.999151848773e+005 9.999270766513e+005 9.999785123977e+005 1.000416140009e+006 1.000568536156e+006 1.000568122465e+006 1.000576093998e+006 1.000779309916e+006 1.000190650430e+006 1.000702416659e+006 1.000064532141e+006 9.998341275127e+005 1.000434350602e+006 9.998598361722e+005 1.000341711992e+006 1.000554536748e+006 1.000606573687e+006 9.998043456007e+005 1.000532946857e+006 1.000489632363e+006 1.000056062846e+006 1.000743482554e+006 1.000040926172e+006 1.000201897584e+006 9.998290890937e+005 9.998816868687e+005 1.000444381750e+006 1.000778877358e+006 1.000277749191e+006 1.000630172364e+006 1.000797088104e+006 1.000792512147e+006 9.998829823795e+005 1.000783974928e+006 1.000059935391e+006 1.000626808842e+006 9.999250958271e+005 9.998717023874e+005 1.000578508856e+006 1.000739244164e+006 1.000383839369e+006 9.998148446016e+005 9.998124977718e+005 9.997983762107e+005 1.000249908810e+006 9.998344891729e+005 9.998807099269e+005 9.999392781468e+005 9.998407261409e+005 1.000202637983e+006 1.000764703066e+006 1.000294603884e+006 1.000291796195e+006 1.000527258979e+006 1.000783548472e+006 9.998441408463e+005 1.000233167980e+006 9.998805264230e+005 1.000704348735e+006 1.000114802224e+006 1.000802516073e+006 9.998402875565e+005 1.000150767374e+006 9.998546397947e+005 1.000542535797e+006 1.000693009819e+006 9.999391241162e+005 1.000722087564e+006 9.998080072239e+005 9.998563149376e+005 1.000373582895e+006 9.998870462920e+005 1.000241140288e+006 1.000101118772e+006 1.000521792190e+006 1.000503510551e+006 9.997930170225e+005 1.000843478003e+006 1.000263008081e+006 1.000309656071e+006 1.000297769094e+006 1.000714697218e+006 1.000651929092e+006 1.000684489979e+006 1.000702093020e+006 1.000416395307e+006 1.000494326131e+006 1.000468519863e+006 9.998308307887e+005 1.000258292796e+006 1.000509244067e+006 1.000556887669e+006 1.000544532312e+006 1.000564028460e+006 1.000526287760e+006 1.000556961418e+006 1.000476488343e+006 1.000561633805e+006 1.000556269770e+006 1.000572491640e+006 1.000551269599e+006 1.000205079503e+006 1.000251058675e+006 1.000333801903e+006 1.000313018628e+006 1.000310647148e+006 1.000220226801e+006 1.000237691924e+006 1.000209275255e+006 1.000357279363e+006 1.000316583800e+006 1.000319141862e+006 1.000223198271e+006 1.000237835756e+006 1.000208601675e+006 1.000303570900e+006 1.000389330058e+006 1.000297458953e+006 1.000229545090e+006 1.000209629123e+006 1.000240679365e+006 1.000297016431e+006 1.000388332725e+006 1.000294273434e+006 1.000230609225e+006 1.000267319689e+006 1.000296463102e+006 1.000292455410e+006 1.000274333873e+006 1.000271046760e+006 1.000273422061e+006 1.000296475238e+006 1.000267330787e+006 1.000292445276e+006 1.000274322510e+006 1.000271052749e+006 1.000273416110e+006 1.000222934661e+006 1.000367933971e+006 1.000238814242e+006 1.000277118772e+006 1.000219554277e+006 1.000259747879e+006 1.000367928007e+006 1.000222962758e+006 1.000238794107e+006 1.000277108629e+006 1.000219553481e+006 1.000259748871e+006 1.000366766455e+006 1.000305758861e+006 1.000194372601e+006 1.000233474063e+006 1.000305720923e+006 1.000366693253e+006 1.000194360418e+006 1.000233135115e+006 1.000330669273e+006 1.000203195232e+006 1.000393949739e+006 1.000245659596e+006 1.000366645417e+006 1.000325947381e+006 1.000203118971e+006 1.000330658467e+006 1.000394090230e+006 1.000245679644e+006 1.000366653166e+006 1.000325949410e+006 1.000211124564e+006 1.000200785411e+006 1.000237523791e+006 1.000210351993e+006 1.000201141952e+006 1.000237333170e+006 1.000292285349e+006 1.000338769281e+006 1.000283669752e+006 1.000292291569e+006 1.000338739975e+006 1.000283637160e+006 1.000207357012e+006 1.000207398368e+006 1.000342385786e+006 1.000269374527e+006 1.000220885124e+006 1.000226315373e+006 1.000341800722e+006 1.000226501779e+006 1.000301254523e+006 1.000264885735e+006 1.000272440280e+006 1.000283970284e+006 1.000301251770e+006 1.000283968044e+006 1.000243044984e+006 1.000293703673e+006 1.000243978230e+006 1.000287008741e+006 1.000378336501e+006 1.000377787534e+006 1.000286519623e+006 1.000347188477e+006 1.000199037239e+006 1.000199014632e+006 1.000302628059e+006 1.000234054131e+006 1.000302634886e+006 1.000312992090e+006 1.000293335978e+006 1.000312984562e+006 1.000304356681e+006 1.000304395551e+006 1.000266918257e+006 1.000312234309e+006 1.000312223829e+006 1.000297979684e+006 1.000244506596e+006 1.000298198437e+006 1.000263133775e+006 1.000246616837e+006 1.000257756035e+006 1.000243573023e+006 1.000265599727e+006 1.000221426085e+006 1.000265179790e+006 1.000218439044e+006 1.000017875492e+006 1.000033296574e+006 1.000332946952e+006 1.000427087903e+006 1.000141267173e+006 1.000446156441e+006 1.000807536689e+006 1.000250899931e+006 1.000736067902e+006 1.000521581191e+006 1.000194673167e+006 1.000331841117e+006 1.000416724258e+006 9.999810131928e+005 1.000560677123e+006 9.997518008556e+005 1.000881416784e+006 1.000731240561e+006 1.000109772247e+006 1.000573406115e+006 1.000678498023e+006 1.000278642945e+006 1.000590948960e+006 9.997764430441e+005 1.000383792508e+006 1.000266107422e+006 1.000787631798e+006 1.000440954660e+006 1.000082790255e+006 1.000075011750e+006 1.000310484774e+006 1.000774822127e+006 1.000028844474e+006 1.000727003970e+006 1.000386494010e+006 1.000637461205e+006 9.999658289876e+005 1.000047466500e+006 1.000053368880e+006 1.000540001355e+006 1.000001224595e+006 1.000677033774e+006 1.000327848629e+006 1.000512094333e+006 1.000660900293e+006 1.000446381472e+006 1.000196795670e+006 1.000464225371e+006 1.000141639700e+006 9.998133193198e+005 1.000341833899e+006 1.000704178809e+006 1.000317833142e+006 9.999281628102e+005 9.999092497658e+005 1.000200112162e+006 1.000257305718e+006 1.000267057466e+006 1.000544255130e+006 1.000535312520e+006 1.000695230783e+006 1.000353960574e+006 1.000476791368e+006 9.999348134645e+005 1.000746926228e+006 9.998798587411e+005 1.000340752958e+006 1.000276361090e+006 1.000348965745e+006 1.000387423414e+006 9.998356711875e+005 9.999816798722e+005 1.000688651886e+006 9.998634438436e+005 9.999454133718e+005 1.000475135280e+006 1.000449100853e+006 9.999775882700e+005 1.000003001738e+006 9.999649068436e+005 1.000236720927e+006 9.999753719408e+005 1.000421428181e+006 1.000513701259e+006 1.000455714535e+006 9.999723567619e+005 1.000160176681e+006 1.000621126530e+006 1.000705176943e+006 1.000392524598e+006 1.000063008453e+006 1.000114134479e+006 9.998960364422e+005 9.998120319921e+005 1.000486185418e+006 1.000716839012e+006 9.997721678288e+005 9.998561290597e+005 1.000470594851e+006 1.000804253510e+006 1.000364052826e+006 9.999070405944e+005 1.000539400876e+006 1.000651222049e+006 1.000350878887e+006 1.000004446538e+006 1.000750651809e+006 1.000248303825e+006 1.000321042780e+006 1.000222918392e+006 1.000233103210e+006 9.998488356208e+005 9.999738717631e+005 1.000459307643e+006 1.000754644618e+006 1.000273088095e+006 9.998696389765e+005 1.000131215439e+006 1.000508206248e+006 1.000510135532e+006 1.000749816334e+006 1.000015722696e+006 9.999151912458e+005 1.000713574490e+006 1.000646474150e+006 1.000655220808e+006 1.000322433244e+006 9.998131311034e+005 1.000382615203e+006 1.000774867664e+006 1.000259479124e+006 1.000755477623e+006 1.000757227362e+006 1.000489660561e+006 9.998786725159e+005 1.000718120902e+006 1.000699764485e+006 9.997970094756e+005 9.999835597280e+005 1.000505410637e+006 1.000289353590e+006 1.000025819805e+006 1.000103506200e+006 1.000725033370e+006 1.000287429110e+006 1.000424222696e+006 1.000740681346e+006 9.999907847033e+005 1.000207709388e+006 1.000471961531e+006 1.000069515531e+006 1.000158218591e+006 1.000585302391e+006 9.999858255454e+005 1.000094810682e+006 1.000006225195e+006 1.000758750038e+006 1.000801480921e+006 9.998891200404e+005 9.999436520355e+005 1.000062972890e+006 1.000556968642e+006 1.000260158416e+006 1.000288744749e+006 1.000774656617e+006 1.000539327506e+006 1.000268414768e+006 1.000395951613e+006 1.000726092028e+006 1.000716220164e+006 1.000440042568e+006 1.000387590462e+006 9.999979456274e+005 1.000239316211e+006 9.999628660889e+005 1.000798702833e+006 9.997701374312e+005 1.000562036304e+006 1.000354873988e+006 1.000061469718e+006 9.999133706045e+005 1.000629659321e+006 9.999078396000e+005 9.998040808095e+005 1.000232830091e+006 1.000658839038e+006 1.000220988412e+006 1.000580619300e+006 1.000370872270e+006 1.000205846458e+006 1.000709291512e+006 1.000020129183e+006 9.997777807053e+005 1.000669397072e+006 1.000144643629e+006 1.000727793499e+006 9.999462264082e+005 1.000652229281e+006 1.000287270516e+006 9.997967989049e+005 1.000682151153e+006 1.000059197215e+006 1.000734819959e+006 9.999015501364e+005 1.000310366760e+006 1.000514663042e+006 9.998735935002e+005 9.998908850909e+005 1.000545697075e+006 1.000166032487e+006 1.000324229283e+006 1.000201288793e+006 1.000080741627e+006 1.000386880790e+006 1.000707699772e+006 1.000503423260e+006 9.999702254730e+005 1.000722318738e+006 1.000124168649e+006 9.998281430584e+005 1.000672372513e+006 1.000201047018e+006 1.000303914226e+006 1.000306012842e+006 1.000386360355e+006 1.000701455173e+006 1.000291300736e+006 1.000160937205e+006 1.000580346454e+006 9.998531490884e+005 1.000520619452e+006 1.000076333431e+006 1.000558793337e+006 1.000138407730e+006 1.000482613965e+006 1.000141457100e+006 1.000100767113e+006 9.991246701930e+005 1.000858039417e+006 1.000493134069e+006 9.998171684343e+005 9.998879767662e+005 1.000416542341e+006 9.999084031828e+005 1.000235256393e+006 1.000255252891e+006 1.000320542736e+006 1.000254789157e+006 1.000317578839e+006 9.998498801432e+005 1.000148413053e+006 9.998712154723e+005 9.998328174391e+005 1.000173177695e+006 1.000311418915e+006 1.000369857142e+006 1.000311176212e+006 1.000673123628e+006 1.000230824988e+006 1.000066480027e+006 1.000333156276e+006 1.000116126936e+006 9.998505878838e+005 1.000606843339e+006 1.000760348134e+006 9.998377864880e+005 9.997766858021e+005 1.000755485132e+006 9.997759819655e+005 1.000041779786e+006 1.000569005842e+006 1.000764141743e+006 1.000557858755e+006 1.000550518898e+006 1.000728617819e+006 1.000390830078e+006 1.000592554180e+006 1.000523073899e+006 1.000506763436e+006 1.000011171145e+006 1.000206987347e+006 1.000207208893e+006 1.000564075268e+006 1.000503489118e+006 1.000035250469e+006 1.000503841635e+006 1.000493369219e+006 1.000579284992e+006 1.000702766548e+006 1.000379371401e+006 9.999197424924e+005 1.000153515565e+006 1.000117753732e+006 1.000624004393e+006 1.000731245525e+006 1.000649778151e+006 1.000086465007e+006 1.000474530465e+006 1.000549791463e+006 1.000560596235e+006 1.000411417077e+006 1.000123138706e+006 1.000287240165e+006 1.000381115763e+006 1.000448547665e+006 1.000334301170e+006 1.000285419501e+006 1.000457327865e+006 1.000282409671e+006 1.000241397261e+006 1.000272417207e+006 1.000139653575e+006 1.000234652674e+006 1.000249639198e+006 1.000387907132e+006 1.000189923494e+006 1.000322468318e+006 1.000179547950e+006 1.000362529579e+006 1.000277946581e+006 1.000382245570e+006 1.000382425743e+006 1.000382670530e+006 1.000373523059e+006 1.000246282572e+006 1.000218489818e+006 1.000106086804e+006 1.000217654512e+006 1.000107951407e+006 1.000504907249e+006 1.000253444951e+006 1.000435952430e+006 1.000257146356e+006 1.000443539457e+006 1.000310410028e+006 1.000246189392e+006 1.000326662128e+006 1.000257788505e+006 1.000257977828e+006 1.000309570558e+006 1.000326899720e+006 1.000232185390e+006 1.000322924821e+006 1.000412516352e+006 1.000317934789e+006 1.000436834903e+006 1.000144724540e+006 1.000200331563e+006 1.000139047521e+006 1.000187726575e+006 1.000415905401e+006 1.000332174962e+006 1.000416728352e+006 1.000333930503e+006 1.000300215129e+006 1.000093502580e+006 1.000505709872e+006 1.000457272353e+006 1.000317255374e+006 1.000225353455e+006 1.000095200720e+006 1.000301377479e+006 1.000501440270e+006 1.000457966398e+006 1.000317815350e+006 1.000225604020e+006 1.000212930782e+006 1.000127914757e+006 1.000309550316e+006 1.000215557368e+006 1.000124909007e+006 1.000313597110e+006 1.000528307665e+006 1.000384529851e+006 1.000449979672e+006 1.000528538051e+006 1.000363777355e+006 1.000451334091e+006 9.999994945507e+005 1.000346728922e+006 1.000016165577e+006 1.000000362310e+006 1.000370652770e+006 1.000031496915e+006 1.000608391068e+006 1.000059884071e+006 1.000581590371e+006 1.000044498450e+006 1.000170687517e+006 1.000471559067e+006 1.000170331087e+006 1.000469194074e+006 1.000231069477e+006 1.000320992873e+006 1.000287825226e+006 1.000232874804e+006 1.000320370349e+006 1.000288210171e+006 1.000189918160e+006 1.000381247753e+006 1.000189553620e+006 1.000380468634e+006 1.000398800980e+006 1.000400768289e+006 1.000347534837e+006 1.000346422114e+006 1.000087758743e+006 1.000082027260e+006 1.000061405306e+006 1.000513959398e+006 1.000006927256e+006 1.000344209752e+006 1.000500004740e+006 1.000474192598e+006 1.000077373067e+006 1.000084847019e+006 1.000093071685e+006 1.000485164477e+006 1.000172482905e+006 1.000487340806e+006 1.000171209836e+006 1.000326117560e+006 1.000052716281e+006 1.000313324911e+006 1.000047409207e+006 1.000030302134e+006 1.000545880385e+006 1.000125610644e+006 9.998508391144e+005 1.000666079422e+006 1.000612072475e+006 1.000517856425e+006 1.000461398179e+006 1.000363466816e+006 1.000506842336e+006 1.000487840031e+006 1.000448838153e+006 1.000078143613e+006 1.000268092659e+006 9.999984688047e+005 1.000336978235e+006 1.000134125319e+006 1.000005209116e+006 1.000140709382e+006 1.000066743598e+006 1.000147424790e+006 1.000636823944e+006 1.000660777361e+006 1.000143057242e+006 1.000508118339e+006 1.000131774082e+006 1.000335101167e+006 1.000525094738e+006 1.000000000000e+006 1.000000000000e+006 1.000141123343e+006 1.000561615801e+006 1.000731931176e+006 1.000059390059e+006 1.000592525522e+006 1.000593137635e+006 9.998992701312e+005 1.000709071122e+006 1.000261907529e+006 1.000654480052e+006 1.000048187157e+006 1.000007074336e+006 9.999990018948e+005 9.998592121185e+005 1.000185307392e+006 1.000057374963e+006 1.000612965675e+006 1.000736328661e+006 1.000270070858e+006 1.000036528335e+006 1.000050004430e+006 1.000632263315e+006 1.000585310675e+006 1.000564938797e+006 1.000253318708e+006 1.000252207663e+006 1.000736436594e+006 1.000250738505e+006 1.000250883971e+006 1.000100485578e+006 1.000217204229e+006 1.000598919073e+006 1.000090067737e+006 9.999759375804e+005 9.998567503364e+005 1.000147327088e+006 1.000393251742e+006 1.000077724673e+006 1.000283420253e+006 1.000001686079e+006 1.000110038695e+006 1.000124308378e+006 1.000686464933e+006 1.000492060079e+006 1.000313778586e+006 1.000658818431e+006 1.000351006575e+006 1.000660150590e+006 1.000405181756e+006 1.000307146742e+006 1.000304522201e+006 1.000682306885e+006 1.000558196501e+006 9.998530286008e+005 1.000158354483e+006 1.000721335657e+006 1.000282352414e+006 1.000282147368e+006 1.000756975957e+006 1.000497262602e+006 1.000314402453e+006 1.000083244248e+006 1.000693121229e+006 1.000594892286e+006 9.998935216361e+005 1.000215282224e+006 1.000264170283e+006 1.000487527919e+006 1.000133784816e+006 1.000078728077e+006 1.000681142586e+006 1.000508865760e+006 1.000673554230e+006 1.000707025014e+006 1.000482923736e+006 9.998543529858e+005 9.999790670345e+005 1.000242907286e+006 1.000608373909e+006 1.000157590897e+006 1.000123339321e+006 9.998462575069e+005 1.000293148830e+006 1.000044107098e+006 1.000543689394e+006 1.000792111744e+006 1.000579335792e+006 1.000589311825e+006 1.000615595980e+006 1.000588585259e+006 1.000596509919e+006 1.000697023953e+006 1.000620546981e+006 1.000192821579e+006 1.000195530902e+006 1.000428165856e+006 1.000187853048e+006 1.000553218778e+006 1.000203011398e+006 9.995332713286e+005 9.999926468060e+005 1.000576506286e+006 1.000548905844e+006 1.000704317075e+006 1.000163847722e+006 1.000129717144e+006 1.000178221967e+006 1.000257736980e+006 1.000257578884e+006 1.000319013370e+006 1.000315712972e+006 1.000665573272e+006 1.000578908481e+006 1.000144602338e+006 1.000150364358e+006 1.000167341455e+006 1.000178724886e+006 1.000563613974e+006 1.000535320779e+006 
        </DataArray>
        <DataArray type="Float64" Name="MEAN_PRESSURE" format="ascii">