<?xml version="1.0"?>
<VTKFile type="UnstructuredGrid" version="0.1" byte_order="LittleEndian">
  <UnstructuredGrid>
    <Piece NumberOfPoints="963" NumberOfCells="1758">
      <Points>
        <DataArray type="Float64" NumberOfComponents="3" format="ascii">
          1.600262034769e+002 1.257989505921e+001 0.000000000000e+000
          1.635346199106e+002 2.000000000000e+001 0.000000000000e+000
          1.554515002484e+002 2.000000000000e+001 0.000000000000e+000
          3.459306441575e+000 1.667621982453e+001 0.000000000000e+000
          3.062266634850e+000 1.705413688405e+001 0.000000000000e+000
          2.873380769063e+000 1.650527725632e+001 0.000000000000e+000
          1.514088444034e+000 1.865189448105e+001 0.000000000000e+000
          1.967902677551e+000 1.834103489750e+001 0.000000000000e+000
          2.034564522234e+000 1.890806711991e+001 0.000000000000e+000
          2.478275273162e+000 1.702762299110e+001 0.000000000000e+000
          2.952621433467e+000 1.774357373580e+001 0.000000000000e+000
          2.237893542067e+000 1.782457469610e+001 0.000000000000e+000
          3.313583922780e+000 3.274674552047e+000 0.000000000000e+000
          2.561432712787e+000 3.156040447793e+000 0.000000000000e+000
          3.047531989640e+000 2.714594415171e+000 0.000000000000e+000
          2.750804692284e+000 3.936058190693e+000 0.000000000000e+000
          2.599039179818e+000 2.451529939148e+000 0.000000000000e+000
          3.139686649742e+000 2.186924052088e+000 0.000000000000e+000
          1.919984553221e+000 3.358010194268e+000 0.000000000000e+000
          1.960900304591e+000 2.773319745251e+000 0.000000000000e+000
          1.894565400391e+000 1.733316857565e+001 0.000000000000e+000
          0.000000000000e+000 1.538461538461e+001 0.000000000000e+000
          5.816229249735e-001 1.567919247147e+001 0.000000000000e+000
          0.000000000000e+000 1.589743589743e+001 0.000000000000e+000
          9.766405669483e+001 2.000000000000e+001 0.000000000000e+000
          1.010672711393e+002 1.500000000000e+001 0.000000000000e+000
          1.029329279907e+002 2.000000000000e+001 0.000000000000e+000
          9.588503785413e+001 1.500000000000e+001 0.000000000000e+000
          1.039231647117e+002 1.000000000000e+001 0.000000000000e+000
          9.860830811271e+001 1.000000000000e+001 0.000000000000e+000
          1.010672711397e+002 5.000000000000e+000 0.000000000000e+000
          9.766405669557e+001 0.000000000000e+000 0.000000000000e+000
          1.029329279915e+002 0.000000000000e+000 0.000000000000e+000
          9.588503785449e+001 5.000000000000e+000 0.000000000000e+000
          7.892434178002e+001 2.000000000000e+001 0.000000000000e+000
          8.173808356948e+001 1.500000000000e+001 0.000000000000e+000
          8.328058896910e+001 2.000000000000e+001 0.000000000000e+000
          7.679274808893e+001 1.514423393202e+001 0.000000000000e+000
          7.970503892166e+001 1.000000000000e+001 0.000000000000e+000
          8.409930620613e+001 1.000000000000e+001 0.000000000000e+000
          8.173808356980e+001 5.000000000000e+000 0.000000000000e+000
          7.892434178065e+001 0.000000000000e+000 0.000000000000e+000
          8.328058896976e+001 0.000000000000e+000 0.000000000000e+000
          7.679274808925e+001 4.855766067979e+000 0.000000000000e+000
          1.084583939765e+002 2.000000000000e+001 0.000000000000e+000
          1.122011528880e+002 1.500000000000e+001 0.000000000000e+000
          1.142529496098e+002 2.000000000000e+001 0.000000000000e+000
          1.065018792644e+002 1.500000000000e+001 0.000000000000e+000
          1.153419838410e+002 1.000000000000e+001 0.000000000000e+000
          1.094968549120e+002 1.000000000000e+001 0.000000000000e+000
          1.122011528884e+002 5.000000000000e+000 0.000000000000e+000
          1.084583939773e+002 0.000000000000e+000 0.000000000000e+000
          1.142529496106e+002 0.000000000000e+000 0.000000000000e+000
          1.065018792648e+002 5.000000000000e+000 0.000000000000e+000
          1.181779812237e+002 1.500000000000e+001 0.000000000000e+000
          1.203297004775e+002 2.000000000000e+001 0.000000000000e+000
          1.214717707847e+002 1.000000000000e+001 0.000000000000e+000
          1.181779812242e+002 5.000000000000e+000 0.000000000000e+000
          1.203297004784e+002 0.000000000000e+000 0.000000000000e+000
          7.477039199538e+001 2.000000000000e+001 0.000000000000e+000
          7.551483469771e+001 1.000000000000e+001 0.000000000000e+000
          7.296959467356e+001 1.385646386579e+001 0.000000000000e+000
          7.477039199599e+001 0.000000000000e+000 0.000000000000e+000
          7.296959467379e+001 6.143536134207e+000 0.000000000000e+000
          6.918477198508e+001 1.366665532880e+001 0.000000000000e+000
          6.746477463053e+001 1.000000000000e+001 0.000000000000e+000
          7.151921701478e+001 1.000000000000e+001 0.000000000000e+000
          6.918477198529e+001 6.333344671202e+000 0.000000000000e+000
          9.263986346551e+001 2.000000000000e+001 0.000000000000e+000
          9.094345943471e+001 1.500000000000e+001 0.000000000000e+000
          9.354026529380e+001 1.000000000000e+001 0.000000000000e+000
          9.263986346623e+001 0.000000000000e+000 0.000000000000e+000
          9.094345943506e+001 5.000000000000e+000 0.000000000000e+000
          1.244344522558e+002 1.503312574389e+001 0.000000000000e+000
          1.267023895482e+002 2.000000000000e+001 0.000000000000e+000
          1.285510028831e+002 1.020485663255e+001 0.000000000000e+000
          1.244344522563e+002 5.033125743893e+000 0.000000000000e+000
          1.267023895491e+002 0.000000000000e+000 0.000000000000e+000
          8.623136018348e+001 1.500000000000e+001 0.000000000000e+000
          8.784898578901e+001 2.000000000000e+001 0.000000000000e+000
          8.870757443665e+001 1.000000000000e+001 0.000000000000e+000
          8.623136018382e+001 5.000000000000e+000 0.000000000000e+000
          8.784898578969e+001 0.000000000000e+000 0.000000000000e+000
          4.872472752737e+000 0.000000000000e+000 0.000000000000e+000
          4.204479229380e+000 6.412840757122e-001 0.000000000000e+000
          4.157376851380e+000 0.000000000000e+000 0.000000000000e+000
          5.192892237051e+000 7.280355562789e-001 0.000000000000e+000
          1.306630304579e+000 6.212843344151e-001 0.000000000000e+000
          1.050228457081e+000 0.000000000000e+000 0.000000000000e+000
          1.614006202528e+000 0.000000000000e+000 0.000000000000e+000
          1.266763055794e+001 1.554696422866e+001 0.000000000000e+000
          1.263589100638e+001 1.657720348306e+001 0.000000000000e+000
          1.174268578662e+001 1.633018318031e+001 0.000000000000e+000
          6.588835695415e+000 7.505681085529e+000 0.000000000000e+000
          6.456871838389e+000 6.658671683861e+000 0.000000000000e+000
          7.208099140752e+000 7.038822846307e+000 0.000000000000e+000
          4.412623338166e+000 9.138856431549e+000 0.000000000000e+000
          4.024185797397e+000 8.708923235630e+000 0.000000000000e+000
          4.601447447338e+000 8.507292699647e+000 0.000000000000e+000
          5.325995059827e-001 6.308307298123e+000 0.000000000000e+000
          0.000000000000e+000 6.666666666655e+000 0.000000000000e+000
          0.000000000000e+000 6.153846153835e+000 0.000000000000e+000
          3.986461521768e+000 8.146114708182e+000 0.000000000000e+000
          2.411603373059e+000 6.510912162016e+000 0.000000000000e+000
          1.807525763324e+000 6.938080373464e+000 0.000000000000e+000
          1.686779352680e+000 6.178928843543e+000 0.000000000000e+000
          2.510760620997e+000 7.229076682239e+000 0.000000000000e+000
          3.166991983438e+000 6.906135870389e+000 0.000000000000e+000
          3.452788915829e+000 6.276851216781e+000 0.000000000000e+000
          3.340122000742e+000 5.656365440432e+000 0.000000000000e+000
          4.047936562877e+000 5.873561587395e+000 0.000000000000e+000
          1.802463974828e+000 1.292744708026e+001 0.000000000000e+000
          1.383967161336e+000 1.330299552906e+001 0.000000000000e+000
          1.329690820161e+000 1.266495373033e+001 0.000000000000e+000
          2.267922292389e+000 1.431116835808e+001 0.000000000000e+000
          2.854613987538e+000 1.466581611369e+001 0.000000000000e+000
          2.339869278674e+000 1.493776402241e+001 0.000000000000e+000
          4.690956878046e+000 3.115726773737e+000 0.000000000000e+000
          4.014773718330e+000 2.850429494150e+000 0.000000000000e+000
          4.643493383296e+000 2.293565471327e+000 0.000000000000e+000
          5.186083944243e+000 1.661927139510e+000 0.000000000000e+000
          5.452965511439e+000 2.679881546544e+000 0.000000000000e+000
          5.360460104304e+000 3.539902157655e+000 0.000000000000e+000
          6.197986304192e+000 3.115706366113e+000 0.000000000000e+000
          7.929356606585e-001 1.634705420870e+001 0.000000000000e+000
          1.222819867503e+000 1.599517159419e+001 0.000000000000e+000
          1.215723647926e+000 1.546209040954e+001 0.000000000000e+000
          1.770601276021e+000 1.521217632514e+001 0.000000000000e+000
          1.242830150061e+000 1.493919370237e+001 0.000000000000e+000
          1.166444124506e+000 4.610115997312e+000 0.000000000000e+000
          1.851620547934e+000 4.486892013458e+000 0.000000000000e+000
          1.494152702314e+000 5.145235789232e+000 0.000000000000e+000
          1.353088107040e+000 4.090803091641e+000 0.000000000000e+000
          3.802567455935e+000 5.084697985980e+000 0.000000000000e+000
          1.014840185783e+000 5.494768572296e+000 0.000000000000e+000
          8.831064584820e-001 5.109311190608e+000 0.000000000000e+000
          1.727903958959e+000 1.618384478933e+001 0.000000000000e+000
          1.343261525342e+000 1.651800241408e+001 0.000000000000e+000
          3.308120627291e+000 8.593311644828e+000 0.000000000000e+000
[...]
      <PointData Scalars="LIQUID_PRESSURE">
        <DataArray type="Float64" Name="LIQUID_PRESSURE" format="ascii">
          1.000299853337e+006 9.999990628007e+005 1.000576925278e+006 9.998706459470e+005 1.000009216106e+006 1.000198946708e+006 1.000132079441e+006 1.000699722324e+006 1.000736213317e+006 1.000729760161e+006 1.000104361619e+006 1.000775331067e+006 9.998038389063e+005 1.000574614037e+006 9.999970340726e+005 1.000265581624e+006 1.000571486224e+006 9.998734804572e+005 1.000672633158e+006 1.000735102339e+006 1.000584887384e+006 1.000633916085e+006 1.000273657607e+006 1.000629574339e+006 1.000235944446e+006 1.000235199107e+006 1.000232045070e+006 1.000236559408e+006 1.000231331112e+006 1.000235313209e+006 1.000235146573e+006 1.000235889593e+006 1.000232058371e+006 1.000236550069e+006 1.000249841959e+006 1.000245970112e+006 1.000247489286e+006 1.000253096369e+006 1.000253466707e+006 1.000244800315e+006 1.000246023222e+006 1.000249976812e+006 1.000247440897e+006 1.000252871130e+006 1.000229180572e+006 1.000225361485e+006 1.000223273222e+006 1.000229475840e+006 1.000222086304e+006 1.000228363282e+006 1.000225087224e+006 1.000229174036e+006 1.000222674243e+006 1.000229535118e+006 1.000220078320e+006 1.000217515077e+006 1.000219757754e+006 1.000221360670e+006 1.000222013072e+006 1.000261873552e+006 1.000248332465e+006 1.000244972827e+006 1.000261488686e+006 1.000245229726e+006 1.000239403012e+006 1.000243313907e+006 1.000278696270e+006 1.000239764754e+006 1.000243429456e+006 1.000240382859e+006 1.000242159942e+006 1.000243407214e+006 1.000240368153e+006 1.000215245681e+006 1.000212067030e+006 1.000190998977e+006 1.000215187148e+006 1.000207984479e+006 1.000248879860e+006 1.000240828572e+006 1.000241489961e+006 1.000248866252e+006 1.000240834354e+006 1.000496758925e+006 1.000645603597e+006 1.000522469796e+006 1.000056980462e+006 9.999093947695e+005 9.998206413889e+005 1.000305122461e+006 1.000351539042e+006 1.000152160384e+006 1.000233719729e+006 1.000788811391e+006 1.000745581824e+006 1.000238475685e+006 1.000775584028e+006 1.000479879307e+006 1.000590024802e+006 1.000281207497e+006 1.000710585771e+006 1.000672588074e+006 1.000459713032e+006 1.000696920990e+006 1.000534383482e+006 1.000405907300e+006 1.000567701235e+006 9.998285329682e+005 9.998416207557e+005 9.998083995603e+005 1.000556461798e+006 1.000492933353e+006 9.999518148831e+005 9.998970981687e+005 1.000797603063e+006 1.000204327985e+006 1.000779216991e+006 1.000543432512e+006 1.000494825345e+006 1.000576263414e+006 1.000046368841e+006 9.998805172254e+005 9.998389407170e+005 1.000458910783e+006 1.000078540331e+006 9.998064334084e+005 9.998051144051e+005 1.000452886207e+006 9.998096792832e+005 9.998154971874e+005 1.000489807899e+006 1.000066554078e+006 9.998802679351e+005 1.000140930708e+006 9.998340115992e+005 9.999398964820e+005 1.000352810277e+006 9.998600161602e+005 9.997988725823e+005 1.000410086319e+006 9.997991823207e+005 1.000004280644e+006 1.000054992770e+006 9.998469046913e+005 1.000070517918e+006 9.998990909811e+005 9.999330491868e+005 1.000055476379e+006 1.000042119788e+006 1.000145624623e+006 1.000550508522e+006 1.000573263602e+006 1.000568345298e+006 9.998295809501e+005 1.000329890807e+006 1.000767588325e+006 1.000494155569e+006 1.000493369150e+006 1.000035181752e+006 9.998441980916e+005 1.000219070061e+006 1.000033317407e+006 9.999103424114e+005 9.999243689799e+005 9.999766599652e+005 1.000405386309e+006 1.000554082964e+006 1.000558631184e+006 1.000561350813e+006 1.000763455404e+006 1.000182657757e+006 1.000688495640e+006 1.000058131743e+006 9.998318663054e+005 1.000423960262e+006 9.998555944156e+005 1.000333844129e+006 1.000545973919e+006 1.000593230575e+006 9.998029289186e+005 1.000519032821e+006 1.000476846086e+006 1.000051124090e+006 1.000728387166e+006 1.000037891607e+006 1.000198052357e+006 9.998258359916e+005 9.998775809981e+005 1.000432847407e+006 1.000762797525e+006 1.000269310280e+006 1.000617744167e+006 1.000780868218e+006 1.000776956033e+006 9.998816112147e+005 1.000768440705e+006 1.000053238045e+006 1.000613244943e+006 9.999220068651e+005 9.998684072669e+005 1.000566125347e+006 1.000722912276e+006 1.000372633161e+006 9.998117673323e+005 9.998103346745e+005 9.997946618246e+005 1.000241176260e+006 9.998318238604e+005 9.998775092375e+005 9.999343693745e+005 9.998389166136e+005 1.000193781362e+006 1.000748625583e+006 1.000289609552e+006 1.000286975865e+006 1.000516248533e+006 1.000767602482e+006 9.998431633007e+005 1.000224208253e+006 9.998769332190e+005 1.000690537705e+006 1.000108508153e+006 1.000788731070e+006 9.998380130847e+005 1.000143268160e+006 9.998519319843e+005 1.000529563468e+006 1.000679251841e+006 9.999360269435e+005 1.000706725102e+006 9.998055562840e+005 9.998534409788e+005 1.000364416667e+006 9.998829633855e+005 1.000236557521e+006 1.000096064035e+006 1.000508648163e+006 1.000490398877e+006 9.997919081524e+005 1.000825952326e+006 1.000253452189e+006 1.000304819472e+006 1.000291648284e+006 1.000702346900e+006 1.000638517521e+006 1.000670992395e+006 1.000688535447e+006 1.000409837527e+006 1.000481749185e+006 1.000461673746e+006 9.998289785843e+005 1.000254362743e+006 1.000495240447e+006 1.000546506967e+006 1.000529917185e+006 1.000549327770e+006 1.000518647105e+006 1.000542222872e+006 1.000469963911e+006 1.000547391253e+006 1.000547179951e+006 1.000556857103e+006 1.000536312293e+006 1.000206349121e+006 1.000250204946e+006 1.000328193132e+006 1.000307592326e+006 1.000305705120e+006 1.000221090777e+006 1.000237757138e+006 1.000209998697e+006 1.000350536498e+006 1.000310959794e+006 1.000313650648e+006 1.000223826024e+006 1.000235767286e+006 1.000209464682e+006 1.000299455281e+006 1.000378517036e+006 1.000293009826e+006 1.000229065766e+006 1.000210486892e+006 1.000238434621e+006 1.000293363667e+006 1.000377522087e+006 1.000290002375e+006 1.000230062619e+006 1.000262197023e+006 1.000289884778e+006 1.000287104318e+006 1.000267858289e+006 1.000266353813e+006 1.000267976753e+006 1.000289896650e+006 1.000262208068e+006 1.000287094149e+006 1.000267848805e+006 1.000266359715e+006 1.000267972127e+006 1.000220533822e+006 1.000358024584e+006 1.000235320827e+006 1.000271046992e+006 1.000217511996e+006 1.000255442391e+006 1.000358018952e+006 1.000220560323e+006 1.000235301832e+006 1.000271037167e+006 1.000217511106e+006 1.000255443396e+006 1.000357795364e+006 1.000298963991e+006 1.000191028983e+006 1.000228558918e+006 1.000298929276e+006 1.000357727808e+006 1.000191022149e+006 1.000228228136e+006 1.000322454517e+006 1.000202200578e+006 1.000382799557e+006 1.000243492954e+006 1.000357561784e+006 1.000318307504e+006 1.000202121830e+006 1.000322443336e+006 1.000382933707e+006 1.000243512601e+006 1.000357565724e+006 1.000318309744e+006 1.000210931858e+006 1.000201937275e+006 1.000234962053e+006 1.000210204119e+006 1.000202299202e+006 1.000234792657e+006 1.000285916060e+006 1.000329916232e+006 1.000277742777e+006 1.000285924623e+006 1.000329885852e+006 1.000277709681e+006 1.000204705635e+006 1.000204729031e+006 1.000335195088e+006 1.000264669069e+006 1.000220675968e+006 1.000224828164e+006 1.000334632788e+006 1.000225012399e+006 1.000294130198e+006 1.000260508039e+006 1.000267466831e+006 1.000277646723e+006 1.000294127609e+006 1.000277645248e+006 1.000241693055e+006 1.000289090991e+006 1.000242565456e+006 1.000279902122e+006 1.000368704138e+006 1.000368160452e+006 1.000279400616e+006 1.000340028938e+006 1.000198246553e+006 1.000198222095e+006 1.000296321638e+006 1.000230914515e+006 1.000296328075e+006 1.000306313416e+006 1.000287644383e+006 1.000306306714e+006 1.000297769482e+006 1.000297815472e+006 1.000262058380e+006 1.000304028809e+006 1.000304018912e+006 1.000292688021e+006 1.000244031345e+006 1.000292942812e+006 1.000257815651e+006 1.000246715116e+006 1.000257330353e+006 1.000243852610e+006 1.000263820505e+006 1.000224381253e+006 1.000263575738e+006 1.000221602089e+006 1.000013188372e+006 1.000027623478e+006 1.000324742987e+006 1.000417296686e+006 1.000133763740e+006 1.000435684464e+006 1.000791725741e+006 1.000243478567e+006 1.000718965989e+006 1.000512204177e+006 1.000188420057e+006 1.000321724590e+006 1.000410194608e+006 9.999760243152e+005 1.001685689492e+006 9.996378102055e+005 1.000846816437e+006 1.000718929770e+006 1.000102942398e+006 1.000561862497e+006 1.000665456948e+006 1.000270352962e+006 1.000577627265e+006 9.997741347017e+005 1.000374099154e+006 1.000257135730e+006 1.000771122203e+006 1.000429457577e+006 1.000077786627e+006 1.000068675326e+006 1.000302062052e+006 1.000758938081e+006 1.000024176254e+006 1.000714210237e+006 1.000380409158e+006 1.000624279856e+006 9.999591857835e+005 1.000042840929e+006 1.000048176190e+006 1.000528901789e+006 9.999956246805e+005 1.000663958256e+006 1.000317881436e+006 1.000501861604e+006 1.000647542809e+006 1.000435994011e+006 1.000192487119e+006 1.000452955946e+006 1.000133991654e+006 9.998103876141e+005 1.000331659201e+006 1.000690865467e+006 1.000311086966e+006 9.999255755933e+005 9.999054618433e+005 1.000192614839e+006 1.000249288130e+006 1.000260026323e+006 1.000534357439e+006 1.000524685917e+006 1.000682252147e+006 1.000344002070e+006 1.000465092676e+006 9.999298276346e+005 1.000733894032e+006 9.998770775275e+005 1.000331781956e+006 1.000269466355e+006 1.000340339220e+006 1.000377082731e+006 9.998328332363e+005 9.999769542113e+005 1.000675737493e+006 9.998601728492e+005 9.999421345216e+005 1.000465126138e+006 1.000437721578e+006 9.999740172959e+005 9.999978252692e+005 9.999597025807e+005 1.000228162564e+006 9.999715299845e+005 1.000411678098e+006 1.000503395996e+006 1.000444650476e+006 9.999676872536e+005 1.000153966814e+006 1.000608680684e+006 1.000690964732e+006 1.000382034167e+006 1.000057525991e+006 1.000107818615e+006 9.998927079186e+005 9.998097937810e+005 1.000476569793e+006 1.000703649206e+006 9.997705691574e+005 9.998540374346e+005 1.000459894317e+006 1.000788147557e+006 1.000355042075e+006 9.999045032125e+005 1.000528128517e+006 1.000638106567e+006 1.000342010611e+006 1.000000340717e+006 1.000737790026e+006 1.000241217007e+006 1.000312407379e+006 1.000213583564e+006 1.000223764179e+006 9.998475836669e+005 9.999693809236e+005 1.000450293223e+006 1.000740663822e+006 1.000265917989e+006 9.998671740425e+005 1.000124938027e+006 1.000498489186e+006 1.000500228766e+006 1.000735131605e+006 1.000010380252e+006 9.999130143835e+005 1.000703421277e+006 1.000634106031e+006 1.000643355419e+006 1.000313198729e+006 9.998109521027e+005 1.000376726592e+006 1.000762546249e+006 1.000252601125e+006 1.000742566917e+006 1.000743674525e+006 1.000478958294e+006 9.998755443561e+005 1.000704992696e+006 1.000684488469e+006 9.997948582305e+005 9.999800744883e+005 1.000494160815e+006 1.000281880420e+006 1.000020279191e+006 1.000097259804e+006 1.000711231306e+006 1.000280549921e+006 1.000413246431e+006 1.000725730408e+006 9.999849637912e+005 1.000200428864e+006 1.000460826649e+006 1.000063349495e+006 1.000151764703e+006 1.000573724781e+006 9.999816568346e+005 1.000089517853e+006 1.000001829593e+006 1.000744418619e+006 1.000784528559e+006 9.998870661907e+005 9.999399468814e+005 1.000058638572e+006 1.000545841431e+006 1.000252200119e+006 1.000280275623e+006 1.000758418741e+006 1.000525629016e+006 1.000259926338e+006 1.000386970489e+006 1.000714612605e+006 1.000702152574e+006 1.000429668435e+006 1.000378231320e+006 9.999923876233e+005 1.000233057367e+006 9.999593697433e+005 1.000781987339e+006 9.997686483717e+005 1.000553063529e+006 1.000345401054e+006 1.000055813193e+006 9.999096207508e+005 1.000618800855e+006 9.999057937591e+005 9.998026284757e+005 1.000228408703e+006 1.000646403052e+006 1.000213449925e+006 1.000569806985e+006 1.000362221119e+006 1.000199104464e+006 1.000696270132e+006 1.000014851104e+006 9.997775389975e+005 1.000655311558e+006 1.000138312794e+006 1.000712867911e+006 9.999415686173e+005 1.000640050432e+006 1.000280737178e+006 9.997949481416e+005 1.000671344990e+006 1.000051134584e+006 1.000722238805e+006 9.998983908189e+005 1.000304348389e+006 1.000506809985e+006 9.998704404801e+005 9.998873064829e+005 1.000534937085e+006 1.000063605789e+006 1.000099557861e+006 1.000064143863e+006 1.000073506980e+006 1.000380895923e+006 1.000693163505e+006 1.000491477465e+006 9.999662059773e+005 1.000710096872e+006 1.000117299043e+006 9.998253525973e+005 1.000661778868e+006 1.000195145615e+006 1.000299400112e+006 1.000301300752e+006 1.000380387797e+006 1.000688113265e+006 1.000281339921e+006 1.000154409515e+006 1.000569592054e+006 9.998507098427e+005 1.000509061188e+006 1.000073509644e+006 1.000546473286e+006 1.000131371392e+006 1.000474116999e+006 1.000134180404e+006 1.000094760232e+006 9.969336195021e+005 9.999201271101e+005 1.000481815874e+006 9.998143989545e+005 9.998837056447e+005 1.000407432162e+006 9.999036294684e+005 1.000230013236e+006 1.000247626714e+006 1.000312424594e+006 1.000247314548e+006 1.000309629896e+006 9.998472367085e+005 1.000144636466e+006 9.998680500403e+005 9.998315271096e+005 1.000169596273e+006 1.000304070757e+006 1.000360782165e+006 1.000303819420e+006 1.000661859577e+006 1.000223613907e+006 1.000059413483e+006 1.000324411564e+006 1.000109932385e+006 9.998485584526e+005 1.000593877611e+006 1.000746620362e+006 9.998352044046e+005 9.997754614999e+005 1.000739198278e+006 9.997727556544e+005 1.000036585180e+006 1.000557953710e+006 1.000261321217e+006 1.000124062776e+006 1.000542668896e+006 1.000712028325e+006 1.000379710599e+006 1.000579638904e+006 1.000511417039e+006 1.000499322955e+006 1.000007041638e+006 1.000211689484e+006 1.000211958092e+006 1.000552534478e+006 1.000492642167e+006 1.000031339392e+006 1.000491524210e+006 1.000481552925e+006 1.000567475701e+006 1.000689828193e+006 1.000370284990e+006 9.999172318213e+005 1.000044652259e+006 1.000035571802e+006 1.000613039610e+006 1.000718269826e+006 1.000635751796e+006 1.000080193184e+006 1.000460357229e+006 1.000541151133e+006 1.000546130788e+006 1.000402407719e+006 1.000119073769e+006 1.000280341794e+006 1.000375402404e+006 1.000437786211e+006 1.000325937105e+006 1.000278847710e+006 1.000446236728e+006 1.000274844697e+006 1.000233879599e+006 1.000265628500e+006 1.000134848003e+006 1.000228171592e+006 1.000242272747e+006 1.000379959271e+006 1.000184559717e+006 1.000314266586e+006 1.000173898924e+006 1.000353557703e+006 1.000271313583e+006 1.000373994793e+006 1.000373512711e+006 1.000374461806e+006 1.000364649028e+006 1.000238615574e+006 1.000212095443e+006 1.000101239425e+006 1.000211151620e+006 1.000103051819e+006 1.000493412872e+006 1.000245666555e+006 1.000426744734e+006 1.000249108800e+006 1.000434148373e+006 1.000303453128e+006 1.000240537390e+006 1.000320101175e+006 1.000251548037e+006 1.000252403171e+006 1.000302554007e+006 1.000320493875e+006 1.000226369997e+006 1.000314634454e+006 1.000402425609e+006 1.000309447900e+006 1.000426329527e+006 1.000139554381e+006 1.000194100423e+006 1.000134010931e+006 1.000181512648e+006 1.000407588190e+006 1.000323359305e+006 1.000408465348e+006 1.000325223974e+006 1.000292043760e+006 1.000088920149e+006 1.000495674302e+006 1.000447506852e+006 1.000309430301e+006 1.000216988399e+006 1.000090554240e+006 1.000293201158e+006 1.000491514402e+006 1.000448149150e+006 1.000309960728e+006 1.000217144091e+006 1.000207778314e+006 1.000121764093e+006 1.000301709693e+006 1.000210456768e+006 1.000118987484e+006 1.000305732161e+006 1.000516811396e+006 1.000375661626e+006 1.000439943507e+006 1.000517410792e+006 1.000355110493e+006 1.000441334771e+006 9.999952639838e+005 1.000338679918e+006 1.000012057931e+006 9.999962627339e+005 1.000361692733e+006 1.000027054819e+006 1.000597506730e+006 1.000056115483e+006 1.000571245951e+006 1.000039976067e+006 1.000164865430e+006 1.000460532149e+006 1.000164472492e+006 1.000458379492e+006 1.000226065016e+006 1.000312437105e+006 1.000280356603e+006 1.000227813126e+006 1.000311811071e+006 1.000280750236e+006 1.000184871160e+006 1.000372162282e+006 1.000184496317e+006 1.000371388809e+006 1.000388938277e+006 1.000390745363e+006 1.000339190004e+006 1.000338053073e+006 1.000084179751e+006 1.000078755282e+006 1.000057052576e+006 1.000503338341e+006 1.000001782340e+006 1.000338135174e+006 1.000490475792e+006 1.000464759290e+006 1.000071857720e+006 1.000078990365e+006 1.000086713855e+006 1.000474904912e+006 1.000166885793e+006 1.000477031687e+006 1.000165544704e+006 1.000317573516e+006 1.000048210905e+006 1.000305174617e+006 1.000043112381e+006 1.000025056346e+006 1.000533448421e+006 1.000119183754e+006 9.998473521321e+005 1.000655427734e+006 1.000599573085e+006 1.000506373606e+006 1.000451240885e+006 1.000354347407e+006 1.000496849959e+006 1.000478346698e+006 1.000439704426e+006 1.000072742842e+006 1.000259585368e+006 9.999956570641e+005 1.000329264084e+006 1.000128434652e+006 1.000000413343e+006 1.000134853731e+006 1.000060166065e+006 1.000143048169e+006 1.000624391681e+006 1.000648305769e+006 1.000137102963e+006 1.000496345533e+006 1.000125407149e+006 1.000329194271e+006 1.000513470171e+006 1.000000000000e+006 1.000000000000e+006 1.000038930837e+006 1.000551162878e+006 1.000717439601e+006 1.000052729626e+006 1.000580513467e+006 1.000580720339e+006 9.998959542247e+005 1.000696551434e+006 1.000254803690e+006 1.000641667802e+006 1.000042187391e+006 1.000002533354e+006 9.999949571078e+005 9.998557395542e+005 1.000179354961e+006 1.000050944665e+006 1.000601522402e+006 1.000723271092e+006 1.000261046624e+006 1.000031825794e+006 1.000044392135e+006 1.000621373785e+006 1.000573780864e+006 1.000554020264e+006 1.000253699608e+006 1.000252680246e+006 1.000722002282e+006 1.000244404121e+006 1.000244538944e+006 1.000092633942e+006 1.000211098339e+006 1.000586359075e+006 1.000084449745e+006 9.999709329254e+005 9.998546955038e+005 1.000139709751e+006 1.000384677807e+006 1.000072214009e+006 1.000275078174e+006 9.999972663070e+005 1.000008861722e+006 1.000010780788e+006 1.000672999293e+006 1.000482001756e+006 1.000350291925e+006 1.000645940894e+006 1.000345860485e+006 1.000646355423e+006 1.000396192547e+006 1.000298826704e+006 1.000079548814e+006 1.000669382134e+006 1.000545287714e+006 9.998491949846e+005 1.000153129639e+006 1.000708108073e+006 1.000275370330e+006 1.000275206497e+006 1.000744174169e+006 1.000489972845e+006 1.000305819800e+006 1.000076102299e+006 1.000681596912e+006 1.000585544854e+006 9.998904791207e+005 1.000208400598e+006 1.000255061677e+006 1.000478872680e+006 1.000127280991e+006 1.000074171881e+006 1.000667457517e+006 1.000499436242e+006 1.000659521455e+006 1.000693670453e+006 1.000472584287e+006 9.998522984791e+005 9.999748168110e+005 1.000233334782e+006 1.000597736436e+006 1.000060941452e+006 1.000116981352e+006 9.998439302912e+005 1.000285297363e+006 1.000039462567e+006 1.000534133075e+006 1.000778886844e+006 1.000568492290e+006 1.000580102491e+006 1.000601798893e+006 1.000575365760e+006 1.000582568238e+006 1.000683503585e+006 1.000608451197e+006 1.000165793918e+006 1.000163936173e+006 1.000359802452e+006 1.000189123775e+006 1.000543868954e+006 1.000193802648e+006 9.999197902662e+005 9.999898023398e+005 1.000568184401e+006 1.000533913885e+006 1.000691392796e+006 1.000166602687e+006 1.000123331268e+006 1.000171721283e+006 1.000251968816e+006 1.000251830204e+006 1.000310047319e+006 1.000306813120e+006 1.000651578770e+006 1.000570356969e+006 1.000140535538e+006 1.000146263027e+006 1.000164265637e+006 1.000175427225e+006 1.000554679136e+006 1.000521383893e+006 
        </DataArray>
        <DataArray type="Float64" Name="MEAN_PRESSURE" format="ascii">