<?xml version="1.0"?>
<VTKFile type="UnstructuredGrid" version="0.1" byte_order="LittleEndian">
  <UnstructuredGrid>
    <Piece NumberOfPoints="963" NumberOfCells="1758">
      <Points>
        <DataArray type="Float64" NumberOfComponents="3" format="ascii">
          1.600262034769e+002 1.257989505921e+001 0.000000000000e+000
          1.635346199106e+002 2.000000000000e+001 0.000000000000e+000
          1.554515002484e+002 2.000000000000e+001 0.000000000000e+000
          3.459306441575e+000 1.667621982453e+001 0.000000000000e+000
          3.062266634850e+000 1.705413688405e+001 0.000000000000e+000
          2.873380769063e+000 1.650527725632e+001 0.000000000000e+000
          1.514088444034e+000 1.865189448105e+001 0.000000000000e+000
          1.967902677551e+000 1.834103489750e+001 0.000000000000e+000
          2.034564522234e+000 1.890806711991e+001 0.000000000000e+000
          2.478275273162e+000 1.702762299110e+001 0.000000000000e+000
          2.952621433467e+000 1.774357373580e+001 0.000000000000e+000
          2.237893542067e+000 1.782457469610e+001 0.000000000000e+000
          3.313583922780e+000 3.274674552047e+000 0.000000000000e+000
          2.561432712787e+000 3.156040447793e+000 0.000000000000e+000
          3.047531989640e+000 2.714594415171e+000 0.000000000000e+000
          2.750804692284e+000 3.936058190693e+000 0.000000000000e+000
          2.599039179818e+000 2.451529939148e+000 0.000000000000e+000
          3.139686649742e+000 2.186924052088e+000 0.000000000000e+000
          1.919984553221e+000 3.358010194268e+000 0.000000000000e+000
          1.960900304591e+000 2.773319745251e+000 0.000000000000e+000
          1.894565400391e+000 1.733316857565e+001 0.000000000000e+000
          0.000000000000e+000 1.538461538461e+001 0.000000000000e+000
          5.816229249735e-001 1.567919247147e+001 0.000000000000e+000
          0.000000000000e+000 1.589743589743e+001 0.000000000000e+000
          9.766405669483e+001 2.000000000000e+001 0.000000000000e+000
          1.010672711393e+002 1.500000000000e+001 0.000000000000e+000
          1.029329279907e+002 2.000000000000e+001 0.000000000000e+000
          9.588503785413e+001 1.500000000000e+001 0.000000000000e+000
          1.039231647117e+002 1.000000000000e+001 0.000000000000e+000
          9.860830811271e+001 1.000000000000e+001 0.000000000000e+000
          1.010672711397e+002 5.000000000000e+000 0.000000000000e+000
          9.766405669557e+001 0.000000000000e+000 0.000000000000e+000
          1.029329279915e+002 0.000000000000e+000 0.000000000000e+000
          9.588503785449e+001 5.000000000000e+000 0.000000000000e+000
          7.892434178002e+001 2.000000000000e+001 0.000000000000e+000
          8.173808356948e+001 1.500000000000e+001 0.000000000000e+000
          8.328058896910e+001 2.000000000000e+001 0.000000000000e+000
          7.679274808893e+001 1.514423393202e+001 0.000000000000e+000
          7.970503892166e+001 1.000000000000e+001 0.000000000000e+000
          8.409930620613e+001 1.000000000000e+001 0.000000000000e+000
          8.173808356980e+001 5.000000000000e+000 0.000000000000e+000
          7.892434178065e+001 0.000000000000e+000 0.000000000000e+000
          8.328058896976e+001 0.000000000000e+000 0.000000000000e+000
          7.679274808925e+001 4.855766067979e+000 0.000000000000e+000
          1.084583939765e+002 2.000000000000e+001 0.000000000000e+000
          1.122011528880e+002 1.500000000000e+001 0.000000000000e+000
          1.142529496098e+002 2.000000000000e+001 0.000000000000e+000
          1.065018792644e+002 1.500000000000e+001 0.000000000000e+000
          1.153419838410e+002 1.000000000000e+001 0.000000000000e+000
          1.094968549120e+002 1.000000000000e+001 0.000000000000e+000
          1.122011528884e+002 5.000000000000e+000 0.000000000000e+000
          1.084583939773e+002 0.000000000000e+000 0.000000000000e+000
          1.142529496106e+002 0.000000000000e+000 0.000000000000e+000
          1.065018792648e+002 5.000000000000e+000 0.000000000000e+000
          1.181779812237e+002 1.500000000000e+001 0.000000000000e+000
          1.203297004775e+002 2.000000000000e+001 0.000000000000e+000
          1.214717707847e+002 1.000000000000e+001 0.000000000000e+000
          1.181779812242e+002 5.000000000000e+000 0.000000000000e+000
          1.203297004784e+002 0.000000000000e+000 0.000000000000e+000
          7.477039199538e+001 2.000000000000e+001 0.000000000000e+000
          7.551483469771e+001 1.000000000000e+001 0.000000000000e+000
          7.296959467356e+001 1.385646386579e+001 0.000000000000e+000
          7.477039199599e+001 0.000000000000e+000 0.000000000000e+000
          7.296959467379e+001 6.143536134207e+000 0.000000000000e+000
          6.918477198508e+001 1.366665532880e+001 0.000000000000e+000
          6.746477463053e+001 1.000000000000e+001 0.000000000000e+000
          7.151921701478e+001 1.000000000000e+001 0.000000000000e+000
          6.918477198529e+001 6.333344671202e+000 0.000000000000e+000
          9.263986346551e+001 2.000000000000e+001 0.000000000000e+000
          9.094345943471e+001 1.500000000000e+001 0.000000000000e+000
          9.354026529380e+001 1.000000000000e+001 0.000000000000e+000
          9.263986346623e+001 0.000000000000e+000 0.000000000000e+000
          9.094345943506e+001 5.000000000000e+000 0.000000000000e+000
          1.244344522558e+002 1.503312574389e+001 0.000000000000e+000
          1.267023895482e+002 2.000000000000e+001 0.000000000000e+000
          1.285510028831e+002 1.020485663255e+001 0.000000000000e+000
          1.244344522563e+002 5.033125743893e+000 0.000000000000e+000
          1.267023895491e+002 0.000000000000e+000 0.000000000000e+000
          8.623136018348e+001 1.500000000000e+001 0.000000000000e+000
          8.784898578901e+001 2.000000000000e+001 0.000000000000e+000
          8.870757443665e+001 1.000000000000e+001 0.000000000000e+000
          8.623136018382e+001 5.000000000000e+000 0.000000000000e+000
          8.784898578969e+001 0.000000000000e+000 0.000000000000e+000
          4.872472752737e+000 0.000000000000e+000 0.000000000000e+000
          4.204479229380e+000 6.412840757122e-001 0.000000000000e+000
          4.157376851380e+000 0.000000000000e+000 0.000000000000e+000
          5.192892237051e+000 7.280355562789e-001 0.000000000000e+000
          1.306630304579e+000 6.212843344151e-001 0.000000000000e+000
          1.050228457081e+000 0.000000000000e+000 0.000000000000e+000
          1.614006202528e+000 0.000000000000e+000 0.000000000000e+000
          1.266763055794e+001 1.554696422866e+001 0.000000000000e+000
          1.263589100638e+001 1.657720348306e+001 0.000000000000e+000
          1.174268578662e+001 1.633018318031e+001 0.000000000000e+000
          6.588835695415e+000 7.505681085529e+000 0.000000000000e+000
          6.456871838389e+000 6.658671683861e+000 0.000000000000e+000
          7.208099140752e+000 7.038822846307e+000 0.000000000000e+000
          4.412623338166e+000 9.138856431549e+000 0.000000000000e+000
          4.024185797397e+000 8.708923235630e+000 0.000000000000e+000
          4.601447447338e+000 8.507292699647e+000 0.000000000000e+000
          5.325995059827e-001 6.308307298123e+000 0.000000000000e+000
          0.000000000000e+000 6.666666666655e+000 0.000000000000e+000
          0.000000000000e+000 6.153846153835e+000 0.000000000000e+000
          3.986461521768e+000 8.146114708182e+000 0.000000000000e+000
          2.411603373059e+000 6.510912162016e+000 0.000000000000e+000
          1.807525763324e+000 6.938080373464e+000 0.000000000000e+000
          1.686779352680e+000 6.178928843543e+000 0.000000000000e+000
          2.510760620997e+000 7.229076682239e+000 0.000000000000e+000
          3.166991983438e+000 6.906135870389e+000 0.000000000000e+000
          3.452788915829e+000 6.276851216781e+000 0.000000000000e+000
          3.340122000742e+000 5.656365440432e+000 0.000000000000e+000
          4.047936562877e+000 5.873561587395e+000 0.000000000000e+000
          1.802463974828e+000 1.292744708026e+001 0.000000000000e+000
          1.383967161336e+000 1.330299552906e+001 0.000000000000e+000
          1.329690820161e+000 1.266495373033e+001 0.000000000000e+000
          2.267922292389e+000 1.431116835808e+001 0.000000000000e+000
          2.854613987538e+000 1.466581611369e+001 0.000000000000e+000
          2.339869278674e+000 1.493776402241e+001 0.000000000000e+000
          4.690956878046e+000 3.115726773737e+000 0.000000000000e+000
          4.014773718330e+000 2.850429494150e+000 0.000000000000e+000
          4.643493383296e+000 2.293565471327e+000 0.000000000000e+000
          5.186083944243e+000 1.661927139510e+000 0.000000000000e+000
          5.452965511439e+000 2.679881546544e+000 0.000000000000e+000
          5.360460104304e+000 3.539902157655e+000 0.000000000000e+000
          6.197986304192e+000 3.115706366113e+000 0.000000000000e+000
          7.929356606585e-001 1.634705420870e+001 0.000000000000e+000
          1.222819867503e+000 1.599517159419e+001 0.000000000000e+000
          1.215723647926e+000 1.546209040954e+001 0.000000000000e+000
          1.770601276021e+000 1.521217632514e+001 0.000000000000e+000
          1.242830150061e+000 1.493919370237e+001 0.000000000000e+000
          1.166444124506e+000 4.610115997312e+000 0.000000000000e+000
          1.851620547934e+000 4.486892013458e+000 0.000000000000e+000
          1.494152702314e+000 5.145235789232e+000 0.000000000000e+000
          1.353088107040e+000 4.090803091641e+000 0.000000000000e+000
          3.802567455935e+000 5.084697985980e+000 0.000000000000e+000
          1.014840185783e+000 5.494768572296e+000 0.000000000000e+000
          8.831064584820e-001 5.109311190608e+000 0.000000000000e+000
          1.727903958959e+000 1.618384478933e+001 0.000000000000e+000
          1.343261525342e+000 1.651800241408e+001 0.000000000000e+000
          3.308120627291e+000 8.593311644828e+000 0.000000000000e+000
[...]
      <PointData Scalars="LIQUID_PRESSURE">
        <DataArray type="Float64" Name="LIQUID_PRESSURE" format="ascii">
          9.998072866983e+005 1.000867570058e+006 1.000132439314e+006 9.998713648646e+005 1.000027451150e+006 1.000234247217e+006 1.000171103154e+006 1.000802110431e+006 1.000850333191e+006 1.000827892112e+006 1.000127655418e+006 1.000889649722e+006 9.997964106719e+005 1.000663202059e+006 1.000007651774e+006 1.000320292717e+006 1.000652070873e+006 9.998748433020e+005 1.000772984867e+006 1.000846080942e+006 1.000675340549e+006 1.000724931244e+006 1.000295470474e+006 1.000717060628e+006 1.000252572810e+006 1.000255354101e+006 1.000246458138e+006 1.000249692149e+006 1.000245100523e+006 1.000252392849e+006 1.000255203917e+006 1.000252485430e+006 1.000246735244e+006 1.000249767323e+006 1.000280010860e+006 1.000264750505e+006 1.000270296392e+006 1.000279651184e+006 1.000288702488e+006 1.000261867837e+006 1.000264875273e+006 1.000280062997e+006 1.000270295621e+006 1.000279128131e+006 1.000244921679e+006 1.000236182908e+006 1.000232377818e+006 1.000241175046e+006 1.000230069610e+006 1.000243770880e+006 1.000236321794e+006 1.000244384007e+006 1.000232763397e+006 1.000241294603e+006 1.000233180280e+006 1.000222237414e+006 1.000223035779e+006 1.000232569013e+006 1.000222697844e+006 1.000292495530e+006 1.000266738372e+006 1.000266774094e+006 1.000292389803e+006 1.000267738054e+006 1.000240939781e+006 1.000263068297e+006 1.000333601114e+006 1.000241082604e+006 1.000274487339e+006 1.000257495240e+006 1.000270213005e+006 1.000274497808e+006 1.000257470706e+006 1.000220524559e+006 1.000224000606e+006 1.000214196897e+006 1.000221439983e+006 1.000220560381e+006 1.000283732545e+006 1.000252874080e+006 1.000258006451e+006 1.000283717416e+006 1.000252869510e+006 1.000536314632e+006 1.000736768625e+006 1.000605955442e+006 1.000066327312e+006 9.999202880197e+005 9.998196958886e+005 1.000367142118e+006 1.000396459116e+006 1.000182657253e+006 1.000269637224e+006 1.000880920091e+006 1.000839106748e+006 1.000275465885e+006 1.000850803296e+006 1.000543263092e+006 1.000659079556e+006 1.000301813072e+006 1.000780800253e+006 1.000739633211e+006 1.000515210211e+006 1.000796136464e+006 1.000618788871e+006 1.000478527945e+006 1.000644182092e+006 9.998252948409e+005 9.998514387642e+005 9.998030709767e+005 1.000627956816e+006 1.000570889752e+006 9.999693289033e+005 9.999130904983e+005 1.000910241065e+006 1.000236849502e+006 1.000879660698e+006 1.000601166987e+006 1.000551386983e+006 1.000640202847e+006 1.000055182928e+006 9.998739779264e+005 9.998326762258e+005 1.000525315826e+006 1.000078860174e+006 9.998031265825e+005 9.998027029307e+005 1.000527821764e+006 9.998111677610e+005 9.998119228585e+005 1.000580497506e+006 1.000102052248e+006 9.998917650948e+005 1.000180208585e+006 9.998302700501e+005 9.999330295842e+005 1.000415682979e+006 9.998667270228e+005 9.997989279722e+005 1.000466737303e+006 9.998055992018e+005 1.000003959455e+006 1.000054501361e+006 9.998553500726e+005 1.000073862719e+006 9.998953358787e+005 9.999573210790e+005 1.000074534473e+006 1.000041752369e+006 1.000174185473e+006 1.000636583973e+006 1.000621018804e+006 1.000671361402e+006 9.998339671889e+005 1.000390927114e+006 1.000887778610e+006 1.000556768963e+006 1.000532206004e+006 1.000055934648e+006 9.998514662621e+005 1.000264744448e+006 1.000067167096e+006 9.999297249238e+005 9.999220871800e+005 9.999657647149e+005 1.000470514520e+006 1.000649732928e+006 1.000608327316e+006 1.000658924703e+006 1.000870031647e+006 1.000227769159e+006 1.000778584780e+006 1.000089541397e+006 9.998281515287e+005 1.000486707020e+006 9.998721202381e+005 1.000376404484e+006 1.000587175411e+006 1.000677951211e+006 9.997919054513e+005 1.000611133272e+006 1.000559033925e+006 1.000069945678e+006 1.000827966048e+006 1.000036408976e+006 1.000201578518e+006 9.998340521431e+005 9.998923229619e+005 1.000504774579e+006 1.000871028595e+006 1.000315647165e+006 1.000694389537e+006 1.000889879804e+006 1.000880353965e+006 9.998686854526e+005 1.000871331009e+006 1.000086731343e+006 1.000701146712e+006 9.999275004647e+005 9.998766786164e+005 1.000644560094e+006 1.000833931352e+006 1.000442737999e+006 9.998160237709e+005 9.998051285247e+005 9.998052070894e+005 1.000290434204e+006 9.998346011751e+005 9.998839080083e+005 9.999538384329e+005 9.998309137564e+005 1.000244869102e+006 1.000856958132e+006 1.000364228277e+006 1.000360099715e+006 1.000582828954e+006 1.000873836037e+006 9.998273191800e+005 1.000278192998e+006 9.998864620847e+005 1.000779037480e+006 1.000139523574e+006 1.000874858611e+006 9.998341048159e+005 1.000183087191e+006 9.998511964613e+005 1.000613074448e+006 1.000767709336e+006 9.999370821276e+005 1.000809363204e+006 9.998039638050e+005 9.998553579125e+005 1.000416831301e+006 9.998974965034e+005 1.000246312580e+006 1.000115671366e+006 1.000593864093e+006 1.000575921981e+006 9.997814915889e+005 1.000946378286e+006 1.000309657931e+006 1.000315470782e+006 1.000313651243e+006 1.000775865602e+006 1.000722210785e+006 1.000755382285e+006 1.000772129922e+006 1.000435177214e+006 1.000560097040e+006 1.000488437989e+006 9.998207994816e+005 1.000257004684e+006 1.000586109433e+006 1.000604981578e+006 1.000626633359e+006 1.000646658280e+006 1.000551434437e+006 1.000640382665e+006 1.000493465559e+006 1.000640543471e+006 1.000593546894e+006 1.000662332388e+006 1.000636897732e+006 1.000209675820e+006 1.000275674742e+006 1.000399270224e+006 1.000369298227e+006 1.000371896796e+006 1.000227129404e+006 1.000253986925e+006 1.000219391345e+006 1.000430940290e+006 1.000374806754e+006 1.000384898588e+006 1.000232229558e+006 1.000263417607e+006 1.000207838465e+006 1.000342803569e+006 1.000482683918e+006 1.000343767787e+006 1.000236955873e+006 1.000208553014e+006 1.000267569550e+006 1.000332350693e+006 1.000481829986e+006 1.000339106541e+006 1.000238574638e+006 1.000294068482e+006 1.000335989143e+006 1.000320627056e+006 1.000313027398e+006 1.000296016682e+006 1.000303022277e+006 1.000335999125e+006 1.000294071131e+006 1.000320614596e+006 1.000313002300e+006 1.000296021539e+006 1.000303009494e+006 1.000233170194e+006 1.000438222321e+006 1.000260796877e+006 1.000316020071e+006 1.000228239937e+006 1.000284437990e+006 1.000438216359e+006 1.000233213323e+006 1.000260771226e+006 1.000316007525e+006 1.000228241690e+006 1.000284439185e+006 1.000416323728e+006 1.000340379767e+006 1.000204748760e+006 1.000254519310e+006 1.000340332216e+006 1.000416249094e+006 1.000204701463e+006 1.000254143838e+006 1.000394144428e+006 1.000209219805e+006 1.000481512349e+006 1.000255447256e+006 1.000437856446e+006 1.000383378981e+006 1.000209152164e+006 1.000394137653e+006 1.000481668238e+006 1.000255473077e+006 1.000437871164e+006 1.000383380117e+006 1.000213848740e+006 1.000188844028e+006 1.000261708830e+006 1.000212813766e+006 1.000189134456e+006 1.000261381568e+006 1.000328043330e+006 1.000391611914e+006 1.000313964084e+006 1.000328026261e+006 1.000391609136e+006 1.000313954809e+006 1.000210012765e+006 1.000210174836e+006 1.000401733494e+006 1.000310290923e+006 1.000225165012e+006 1.000239216267e+006 1.000401029587e+006 1.000239396957e+006 1.000347589508e+006 1.000286378001e+006 1.000301623065e+006 1.000322030404e+006 1.000347584647e+006 1.000322022534e+006 1.000260780846e+006 1.000342530965e+006 1.000262181049e+006 1.000325888547e+006 1.000434928751e+006 1.000434477957e+006 1.000325606932e+006 1.000399302631e+006 1.000203102409e+006 1.000203093711e+006 1.000343866389e+006 1.000252113400e+006 1.000343876742e+006 1.000360355188e+006 1.000333273978e+006 1.000360342429e+006 1.000338951713e+006 1.000338935611e+006 1.000290972029e+006 1.000363124206e+006 1.000363118346e+006 1.000355735932e+006 1.000257298832e+006 1.000355473381e+006 1.000289680909e+006 1.000258392001e+006 1.000277709046e+006 1.000254018216e+006 1.000307028403e+006 1.000214345506e+006 1.000304299222e+006 1.000209360453e+006 1.000029221734e+006 1.000054409266e+006 1.000366192716e+006 1.000474482366e+006 1.000175488869e+006 1.000499437312e+006 1.000897305991e+006 1.000281940217e+006 1.000836800721e+006 1.000561529507e+006 1.000215143522e+006 1.000381719556e+006 1.000434240755e+006 9.999963229713e+005 1.000255867544e+006 1.000077711310e+006 1.000393919002e+006 1.000790725502e+006 1.000138454806e+006 1.000630404622e+006 1.000746423769e+006 1.000317470498e+006 1.000664302857e+006 9.997717499545e+005 1.000431638708e+006 1.000308556219e+006 1.000883644024e+006 1.000500889577e+006 1.000095030186e+006 1.000098913987e+006 1.000349610745e+006 1.000866223807e+006 1.000041445675e+006 1.000790715243e+006 1.000401034609e+006 1.000706101898e+006 9.999970166579e+005 1.000058064562e+006 1.000067679353e+006 1.000594088925e+006 1.000021369553e+006 1.000745533455e+006 1.000379677361e+006 1.000559743597e+006 1.000732886569e+006 1.000498579026e+006 1.000200120437e+006 1.000523034219e+006 1.000176840424e+006 9.998163606090e+005 1.000394800285e+006 1.000775320309e+006 1.000341286936e+006 9.999262719841e+005 9.999168547413e+005 1.000233556865e+006 1.000293586984e+006 1.000295412263e+006 1.000589996434e+006 1.000586357551e+006 1.000762728196e+006 1.000404665506e+006 1.000538928540e+006 9.999532280257e+005 1.000814309261e+006 9.998781490282e+005 1.000382085397e+006 1.000304325377e+006 1.000388865807e+006 1.000438374424e+006 9.998348015848e+005 9.999946748066e+005 1.000755677284e+006 9.998671854709e+005 9.999460753699e+005 1.000523358804e+006 1.000509381641e+006 9.999806144982e+005 1.000021376693e+006 9.999832570342e+005 1.000276631830e+006 9.999835699412e+005 1.000469783913e+006 1.000562561527e+006 1.000514524345e+006 9.999880243965e+005 1.000184608445e+006 1.000687701739e+006 1.000782842774e+006 1.000445785975e+006 1.000082874305e+006 1.000138865179e+006 9.998984741854e+005 9.998089776089e+005 1.000529189275e+006 1.000785397106e+006 9.997619896377e+005 9.998476458454e+005 1.000525114847e+006 1.000896046717e+006 1.000405216588e+006 9.999027189092e+005 1.000596295327e+006 1.000721084498e+006 1.000390997223e+006 1.000013150151e+006 1.000815469895e+006 1.000275092089e+006 1.000361340055e+006 1.000269176666e+006 1.000279373614e+006 9.998347524313e+005 9.999859101692e+005 1.000497696765e+006 1.000828424403e+006 1.000299831254e+006 9.998653531685e+005 1.000156286918e+006 1.000553304212e+006 1.000557354499e+006 1.000830267827e+006 1.000034190332e+006 9.999073926862e+005 1.000756870699e+006 1.000709294698e+006 1.000715482229e+006 1.000368030058e+006 9.998059540530e+005 1.000395607461e+006 1.000835533704e+006 1.000283706605e+006 1.000822072780e+006 1.000827573160e+006 1.000542698059e+006 9.998821216900e+005 1.000787111960e+006 1.000786186894e+006 9.997937687528e+005 9.999876977763e+005 1.000562864784e+006 1.000317951687e+006 1.000044526778e+006 1.000125701447e+006 1.000797474899e+006 1.000311329949e+006 1.000480548016e+006 1.000824397802e+006 1.000013858872e+006 1.000237751969e+006 1.000528391803e+006 1.000094328081e+006 1.000182159240e+006 1.000644044942e+006 9.999955560861e+005 1.000112091960e+006 1.000015884807e+006 1.000835978527e+006 1.000900440740e+006 9.998818317838e+005 9.999498807718e+005 1.000072832213e+006 1.000613172288e+006 1.000295014826e+006 1.000327254515e+006 1.000868517265e+006 1.000616003037e+006 1.000307573582e+006 1.000438397677e+006 1.000779985311e+006 1.000790931651e+006 1.000491265229e+006 1.000431129349e+006 1.000021712377e+006 1.000259751764e+006 9.999666810582e+005 1.000895264318e+006 9.997588818204e+005 1.000598447714e+006 1.000400980939e+006 1.000081863544e+006 9.999215981209e+005 1.000681361361e+006 9.998989194582e+005 9.997919249437e+005 1.000236301561e+006 1.000722897846e+006 1.000253591699e+006 1.000631931999e+006 1.000410356397e+006 1.000231205952e+006 1.000776397966e+006 1.000038275385e+006 9.997569953255e+005 1.000747702371e+006 1.000169021846e+006 1.000811180706e+006 9.999606779273e+005 1.000714559007e+006 1.000310801276e+006 9.997906048004e+005 1.000731888493e+006 1.000099223375e+006 1.000798813315e+006 9.999044597808e+005 1.000325732387e+006 1.000541968449e+006 9.998766899008e+005 9.998982546587e+005 1.000598981726e+006 1.000568095190e+006 1.000499812237e+006 1.000387803977e+006 1.000114419448e+006 1.000400837336e+006 1.000788775248e+006 1.000566774955e+006 9.999789690545e+005 1.000782537829e+006 1.000153190324e+006 9.998294981403e+005 1.000719706283e+006 1.000218155219e+006 1.000374427315e+006 1.000378499093e+006 1.000400177216e+006 1.000769849391e+006 1.000340878450e+006 1.000184695097e+006 1.000631486894e+006 9.998489357864e+005 1.000580212737e+006 1.000069850832e+006 1.000621754699e+006 1.000166811622e+006 1.000517416753e+006 1.000174943824e+006 1.000122162829e+006 9.999251797907e+005 1.000225248961e+006 1.000551382136e+006 9.998168313464e+005 9.998984579192e+005 1.000456702190e+006 9.999248012058e+005 1.000245593898e+006 1.000299007385e+006 1.000365759500e+006 1.000297360050e+006 1.000361726873e+006 9.998493740245e+005 1.000148041779e+006 9.998744559053e+005 9.998189201473e+005 1.000182957736e+006 1.000350683315e+006 1.000422662345e+006 1.000350431622e+006 1.000727134924e+006 1.000259778210e+006 1.000095790230e+006 1.000373851443e+006 1.000140348749e+006 9.998451564968e+005 1.000676626940e+006 1.000832671566e+006 9.998338391243e+005 9.997628947795e+005 1.000849319900e+006 9.997789255825e+005 1.000060791760e+006 1.000625307490e+006 1.000774233533e+006 1.000522241151e+006 1.000577817104e+006 1.000825888779e+006 1.000450021935e+006 1.000662650994e+006 1.000584757712e+006 1.000530792346e+006 1.000019037614e+006 1.000193636923e+006 1.000193079796e+006 1.000623687705e+006 1.000556849843e+006 1.000043834090e+006 1.000572065880e+006 1.000557485705e+006 1.000640953062e+006 1.000770182611e+006 1.000421582042e+006 9.999175923959e+005 1.000232643157e+006 1.000197458586e+006 1.000677959800e+006 1.000796623523e+006 1.000723850063e+006 1.000111452676e+006 1.000553824755e+006 1.000582972572e+006 1.000641905377e+006 1.000451750144e+006 1.000136854086e+006 1.000320115817e+006 1.000403011091e+006 1.000509564781e+006 1.000377958735e+006 1.000315554211e+006 1.000521191915e+006 1.000320844092e+006 1.000280683717e+006 1.000304688395e+006 1.000158587974e+006 1.000265594874e+006 1.000287370542e+006 1.000426041386e+006 1.000209859468e+006 1.000364293783e+006 1.000201811627e+006 1.000409535214e+006 1.000305249405e+006 1.000420822328e+006 1.000427177157e+006 1.000421210397e+006 1.000418369246e+006 1.000282228511e+006 1.000245564342e+006 1.000122597482e+006 1.000245644616e+006 1.000124933203e+006 1.000567869169e+006 1.000290736090e+006 1.000481394169e+006 1.000296000650e+006 1.000490025384e+006 1.000344409981e+006 1.000270710200e+006 1.000354154091e+006 1.000284741169e+006 1.000281537104e+006 1.000343877063e+006 1.000352979787e+006 1.000256344574e+006 1.000364672912e+006 1.000467999583e+006 1.000361389429e+006 1.000495064007e+006 1.000165472443e+006 1.000227987831e+006 1.000158994206e+006 1.000215586347e+006 1.000455400728e+006 1.000376239335e+006 1.000455878716e+006 1.000377201084e+006 1.000341204246e+006 1.000109648528e+006 1.000557144617e+006 1.000508879672e+006 1.000355928851e+006 1.000270144343e+006 1.000111702454e+006 1.000342493683e+006 1.000552222894e+006 1.000509759707e+006 1.000356832943e+006 1.000271157063e+006 1.000231122303e+006 1.000154475011e+006 1.000347361979e+006 1.000232960238e+006 1.000149489929e+006 1.000351379409e+006 1.000589832918e+006 1.000426871983e+006 1.000501022943e+006 1.000587202213e+006 1.000405176297e+006 1.000502060191e+006 1.000010383226e+006 1.000382557431e+006 1.000027173685e+006 1.000011044854e+006 1.000413918492e+006 1.000044835347e+006 1.000661577659e+006 1.000066063076e+006 1.000631969761e+006 1.000057738591e+006 1.000192800483e+006 1.000530188198e+006 1.000192727782e+006 1.000526103648e+006 1.000249009454e+006 1.000370207052e+006 1.000327453049e+006 1.000251119101e+006 1.000369703967e+006 1.000327759636e+006 1.000208130946e+006 1.000428413898e+006 1.000207714233e+006 1.000427684929e+006 1.000452764405e+006 1.000455893602e+006 1.000389527589e+006 1.000388546813e+006 1.000094243600e+006 1.000086167469e+006 1.000069962405e+006 1.000565262167e+006 1.000023318136e+006 1.000359980444e+006 1.000546255470e+006 1.000519840753e+006 1.000097568799e+006 1.000107280201e+006 1.000121150568e+006 1.000537163067e+006 1.000193014057e+006 1.000538987511e+006 1.000191452906e+006 1.000367161435e+006 1.000066456350e+006 1.000351789257e+006 1.000059404738e+006 1.000050321369e+006 1.000613594498e+006 1.000153207103e+006 9.998581413693e+005 1.000715310066e+006 1.000678407767e+006 1.000578039023e+006 1.000512875308e+006 1.000407886933e+006 1.000556175053e+006 1.000533524210e+006 1.000492034392e+006 1.000097413965e+006 1.000308549119e+006 9.999981003237e+005 1.000370009825e+006 1.000154354381e+006 1.000020902216e+006 1.000162646997e+006 1.000096711583e+006 1.000157411300e+006 1.000702326568e+006 1.000723921060e+006 1.000165453749e+006 1.000570607356e+006 1.000154911750e+006 1.000348855497e+006 1.000585169935e+006 1.000000000000e+006 1.000000000000e+006 1.000194392546e+006 1.000609543735e+006 1.000811366099e+006 1.000086741217e+006 1.000653430306e+006 1.000657907786e+006 9.999040664993e+005 1.000770988384e+006 1.000289118547e+006 1.000718749368e+006 1.000070808484e+006 1.000020392359e+006 1.000008164676e+006 9.998662542324e+005 1.000203971837e+006 1.000086029191e+006 1.000671101700e+006 1.000803022025e+006 1.000315560762e+006 1.000050804270e+006 1.000069854273e+006 1.000684602448e+006 1.000645619649e+006 1.000617411350e+006 1.000284708942e+006 1.000282827814e+006 1.000815340248e+006 1.000284536727e+006 1.000284752037e+006 1.000140067002e+006 1.000236154576e+006 1.000664653891e+006 1.000110385444e+006 9.999918669017e+005 9.998491390284e+005 1.000180403967e+006 1.000432831315e+006 1.000098599594e+006 1.000323686493e+006 1.000012579452e+006 1.000205605450e+006 1.000147301531e+006 1.000759323940e+006 1.000540783544e+006 1.000233208888e+006 1.000724910311e+006 1.000358462145e+006 1.000732499838e+006 1.000446669589e+006 1.000343569643e+006 1.000374914744e+006 1.000751698665e+006 1.000629076118e+006 9.998619644353e+005 1.000174125959e+006 1.000790310470e+006 1.000318933670e+006 1.000318347385e+006 1.000822237797e+006 1.000520296031e+006 1.000354415672e+006 1.000116402773e+006 1.000748554597e+006 1.000633622202e+006 9.998961433986e+005 1.000243259444e+006 1.000308401475e+006 1.000523796234e+006 1.000159053839e+006 1.000088007668e+006 1.000752704566e+006 1.000550097966e+006 1.000748862874e+006 1.000778770780e+006 1.000534251773e+006 9.998497637053e+005 9.999898599491e+005 1.000208457373e+006 1.000660403175e+006 1.000626812820e+006 1.000149795207e+006 9.998420345936e+005 1.000328045279e+006 1.000056160347e+006 1.000586701457e+006 1.000858591743e+006 1.000633821632e+006 1.000627588136e+006 1.000691262252e+006 1.000658917182e+006 1.000672436233e+006 1.000767082268e+006 1.000680204923e+006 1.000236437940e+006 1.000186133045e+006 1.000135712134e+006 1.000212387960e+006 1.000591822817e+006 1.000202119227e+006 1.000396295498e+006 9.999874657163e+005 1.000607465451e+006 1.000630754749e+006 1.000770029810e+006 1.000198135432e+006 1.000152842366e+006 1.000201607393e+006 1.000285147827e+006 1.000284868277e+006 1.000369109928e+006 1.000365385903e+006 1.000739909135e+006 1.000612368036e+006 1.000155777504e+006 1.000161535475e+006 1.000170545853e+006 1.000183655463e+006 1.000599031821e+006 1.000609816454e+006 
        </DataArray>
        <DataArray type="Float64" Name="MEAN_PRESSURE" format="ascii">