<?xml version="1.0"?>
<VTKFile type="UnstructuredGrid" version="0.1" byte_order="LittleEndian">
  <UnstructuredGrid>
    <Piece NumberOfPoints="963" NumberOfCells="1758">
      <Points>
        <DataArray type="Float64" NumberOfComponents="3" format="ascii">
          1.600262034769e+002 1.257989505921e+001 0.000000000000e+000
          1.635346199106e+002 2.000000000000e+001 0.000000000000e+000
          1.554515002484e+002 2.000000000000e+001 0.000000000000e+000
          3.459306441575e+000 1.667621982453e+001 0.000000000000e+000
          3.062266634850e+000 1.705413688405e+001 0.000000000000e+000
          2.873380769063e+000 1.650527725632e+001 0.000000000000e+000
          1.514088444034e+000 1.865189448105e+001 0.000000000000e+000
          1.967902677551e+000 1.834103489750e+001 0.000000000000e+000
          2.034564522234e+000 1.890806711991e+001 0.000000000000e+000
          2.478275273162e+000 1.702762299110e+001 0.000000000000e+000
          2.952621433467e+000 1.774357373580e+001 0.000000000000e+000
          2.237893542067e+000 1.782457469610e+001 0.000000000000e+000
          3.313583922780e+000 3.274674552047e+000 0.000000000000e+000
          2.561432712787e+000 3.156040447793e+000 0.000000000000e+000
          3.047531989640e+000 2.714594415171e+000 0.000000000000e+000
          2.750804692284e+000 3.936058190693e+000 0.000000000000e+000
          2.599039179818e+000 2.451529939148e+000 0.000000000000e+000
          3.139686649742e+000 2.186924052088e+000 0.000000000000e+000
          1.919984553221e+000 3.358010194268e+000 0.000000000000e+000
          1.960900304591e+000 2.773319745251e+000 0.000000000000e+000
          1.894565400391e+000 1.733316857565e+001 0.000000000000e+000
          0.000000000000e+000 1.538461538461e+001 0.000000000000e+000
          5.816229249735e-001 1.567919247147e+001 0.000000000000e+000
          0.000000000000e+000 1.589743589743e+001 0.000000000000e+000
          9.766405669483e+001 2.000000000000e+001 0.000000000000e+000
          1.010672711393e+002 1.500000000000e+001 0.000000000000e+000
          1.029329279907e+002 2.000000000000e+001 0.000000000000e+000
          9.588503785413e+001 1.500000000000e+001 0.000000000000e+000
          1.039231647117e+002 1.000000000000e+001 0.000000000000e+000
          9.860830811271e+001 1.000000000000e+001 0.000000000000e+000
          1.010672711397e+002 5.000000000000e+000 0.000000000000e+000
          9.766405669557e+001 0.000000000000e+000 0.000000000000e+000
          1.029329279915e+002 0.000000000000e+000 0.000000000000e+000
          9.588503785449e+001 5.000000000000e+000 0.000000000000e+000
          7.892434178002e+001 2.000000000000e+001 0.000000000000e+000
          8.173808356948e+001 1.500000000000e+001 0.000000000000e+000
          8.328058896910e+001 2.000000000000e+001 0.000000000000e+000
          7.679274808893e+001 1.514423393202e+001 0.000000000000e+000
          7.970503892166e+001 1.000000000000e+001 0.000000000000e+000
          8.409930620613e+001 1.000000000000e+001 0.000000000000e+000
          8.173808356980e+001 5.000000000000e+000 0.000000000000e+000
          7.892434178065e+001 0.000000000000e+000 0.000000000000e+000
          8.328058896976e+001 0.000000000000e+000 0.000000000000e+000
          7.679274808925e+001 4.855766067979e+000 0.000000000000e+000
          1.084583939765e+002 2.000000000000e+001 0.000000000000e+000
          1.122011528880e+002 1.500000000000e+001 0.000000000000e+000
          1.142529496098e+002 2.000000000000e+001 0.000000000000e+000
          1.065018792644e+002 1.500000000000e+001 0.000000000000e+000
          1.153419838410e+002 1.000000000000e+001 0.000000000000e+000
          1.094968549120e+002 1.000000000000e+001 0.000000000000e+000
          1.122011528884e+002 5.000000000000e+000 0.000000000000e+000
          1.084583939773e+002 0.000000000000e+000 0.000000000000e+000
          1.142529496106e+002 0.000000000000e+000 0.000000000000e+000
          1.065018792648e+002 5.000000000000e+000 0.000000000000e+000
          1.181779812237e+002 1.500000000000e+001 0.000000000000e+000
          1.203297004775e+002 2.000000000000e+001 0.000000000000e+000
          1.214717707847e+002 1.000000000000e+001 0.000000000000e+000
          1.181779812242e+002 5.000000000000e+000 0.000000000000e+000
          1.203297004784e+002 0.000000000000e+000 0.000000000000e+000
          7.477039199538e+001 2.000000000000e+001 0.000000000000e+000
          7.551483469771e+001 1.000000000000e+001 0.000000000000e+000
          7.296959467356e+001 1.385646386579e+001 0.000000000000e+000
          7.477039199599e+001 0.000000000000e+000 0.000000000000e+000
          7.296959467379e+001 6.143536134207e+000 0.000000000000e+000
          6.918477198508e+001 1.366665532880e+001 0.000000000000e+000
          6.746477463053e+001 1.000000000000e+001 0.000000000000e+000
          7.151921701478e+001 1.000000000000e+001 0.000000000000e+000
          6.918477198529e+001 6.333344671202e+000 0.000000000000e+000
          9.263986346551e+001 2.000000000000e+001 0.000000000000e+000
          9.094345943471e+001 1.500000000000e+001 0.000000000000e+000
          9.354026529380e+001 1.000000000000e+001 0.000000000000e+000
          9.263986346623e+001 0.000000000000e+000 0.000000000000e+000
          9.094345943506e+001 5.000000000000e+000 0.000000000000e+000
          1.244344522558e+002 1.503312574389e+001 0.000000000000e+000
          1.267023895482e+002 2.000000000000e+001 0.000000000000e+000
          1.285510028831e+002 1.020485663255e+001 0.000000000000e+000
          1.244344522563e+002 5.033125743893e+000 0.000000000000e+000
          1.267023895491e+002 0.000000000000e+000 0.000000000000e+000
          8.623136018348e+001 1.500000000000e+001 0.000000000000e+000
          8.784898578901e+001 2.000000000000e+001 0.000000000000e+000
          8.870757443665e+001 1.000000000000e+001 0.000000000000e+000
          8.623136018382e+001 5.000000000000e+000 0.000000000000e+000
          8.784898578969e+001 0.000000000000e+000 0.000000000000e+000
          4.872472752737e+000 0.000000000000e+000 0.000000000000e+000
          4.204479229380e+000 6.412840757122e-001 0.000000000000e+000
          4.157376851380e+000 0.000000000000e+000 0.000000000000e+000
          5.192892237051e+000 7.280355562789e-001 0.000000000000e+000
          1.306630304579e+000 6.212843344151e-001 0.000000000000e+000
          1.050228457081e+000 0.000000000000e+000 0.000000000000e+000
          1.614006202528e+000 0.000000000000e+000 0.000000000000e+000
          1.266763055794e+001 1.554696422866e+001 0.000000000000e+000
          1.263589100638e+001 1.657720348306e+001 0.000000000000e+000
          1.174268578662e+001 1.633018318031e+001 0.000000000000e+000
          6.588835695415e+000 7.505681085529e+000 0.000000000000e+000
          6.456871838389e+000 6.658671683861e+000 0.000000000000e+000
          7.208099140752e+000 7.038822846307e+000 0.000000000000e+000
          4.412623338166e+000 9.138856431549e+000 0.000000000000e+000
          4.024185797397e+000 8.708923235630e+000 0.000000000000e+000
          4.601447447338e+000 8.507292699647e+000 0.000000000000e+000
          5.325995059827e-001 6.308307298123e+000 0.000000000000e+000
          0.000000000000e+000 6.666666666655e+000 0.000000000000e+000
          0.000000000000e+000 6.153846153835e+000 0.000000000000e+000
          3.986461521768e+000 8.146114708182e+000 0.000000000000e+000
          2.411603373059e+000 6.510912162016e+000 0.000000000000e+000
          1.807525763324e+000 6.938080373464e+000 0.000000000000e+000
          1.686779352680e+000 6.178928843543e+000 0.000000000000e+000
          2.510760620997e+000 7.229076682239e+000 0.000000000000e+000
          3.166991983438e+000 6.906135870389e+000 0.000000000000e+000
          3.452788915829e+000 6.276851216781e+000 0.000000000000e+000
          3.340122000742e+000 5.656365440432e+000 0.000000000000e+000
          4.047936562877e+000 5.873561587395e+000 0.000000000000e+000
          1.802463974828e+000 1.292744708026e+001 0.000000000000e+000
          1.383967161336e+000 1.330299552906e+001 0.000000000000e+000
          1.329690820161e+000 1.266495373033e+001 0.000000000000e+000
          2.267922292389e+000 1.431116835808e+001 0.000000000000e+000
          2.854613987538e+000 1.466581611369e+001 0.000000000000e+000
          2.339869278674e+000 1.493776402241e+001 0.000000000000e+000
          4.690956878046e+000 3.115726773737e+000 0.000000000000e+000
          4.014773718330e+000 2.850429494150e+000 0.000000000000e+000
          4.643493383296e+000 2.293565471327e+000 0.000000000000e+000
          5.186083944243e+000 1.661927139510e+000 0.000000000000e+000
          5.452965511439e+000 2.679881546544e+000 0.000000000000e+000
          5.360460104304e+000 3.539902157655e+000 0.000000000000e+000
          6.197986304192e+000 3.115706366113e+000 0.000000000000e+000
          7.929356606585e-001 1.634705420870e+001 0.000000000000e+000
          1.222819867503e+000 1.599517159419e+001 0.000000000000e+000
          1.215723647926e+000 1.546209040954e+001 0.000000000000e+000
          1.770601276021e+000 1.521217632514e+001 0.000000000000e+000
          1.242830150061e+000 1.493919370237e+001 0.000000000000e+000
          1.166444124506e+000 4.610115997312e+000 0.000000000000e+000
          1.851620547934e+000 4.486892013458e+000 0.000000000000e+000
          1.494152702314e+000 5.145235789232e+000 0.000000000000e+000
          1.353088107040e+000 4.090803091641e+000 0.000000000000e+000
          3.802567455935e+000 5.084697985980e+000 0.000000000000e+000
          1.014840185783e+000 5.494768572296e+000 0.000000000000e+000
          8.831064584820e-001 5.109311190608e+000 0.000000000000e+000
          1.727903958959e+000 1.618384478933e+001 0.000000000000e+000
          1.343261525342e+000 1.651800241408e+001 0.000000000000e+000
          3.308120627291e+000 8.593311644828e+000 0.000000000000e+000
[...]
      <PointData Scalars="LIQUID_PRESSURE">
        <DataArray type="Float64" Name="LIQUID_PRESSURE" format="ascii">
          9.984167276747e+005 9.981898529987e+005 9.995704850431e+005 9.999772402442e+005 1.000116693431e+006 1.000307306664e+006 1.000240644764e+006 1.000811375138e+006 1.000848416452e+006 1.000841200252e+006 1.000212120231e+006 1.000887517677e+006 9.999100591615e+005 1.000685533859e+006 1.000104146627e+006 1.000374819882e+006 1.000682069011e+006 9.999801025360e+005 1.000784175193e+006 1.000847129825e+006 1.000695950346e+006 1.000745109305e+006 1.000381661179e+006 1.000740618813e+006 1.000323496961e+006 1.000325698281e+006 1.000324049963e+006 1.000322604988e+006 1.000323984076e+006 1.000323570772e+006 1.000325475462e+006 1.000323311672e+006 1.000323717572e+006 1.000322528418e+006 1.000329012678e+006 1.000325043125e+006 1.000326998154e+006 1.000332305306e+006 1.000332822211e+006 1.000324369445e+006 1.000325092598e+006 1.000329141720e+006 1.000326936678e+006 1.000332065379e+006 1.000326084917e+006 1.000326738995e+006 1.000328588436e+006 1.000324489511e+006 1.000329173171e+006 1.000326150235e+006 1.000326143497e+006 1.000325450315e+006 1.000327805903e+006 1.000324153241e+006 1.000334916723e+006 1.000338898131e+006 1.000344418197e+006 1.000335210860e+006 1.000339099603e+006 1.000341608379e+006 1.000327443323e+006 1.000324656822e+006 1.000341222494e+006 1.000324933471e+006 1.000319792387e+006 1.000324881455e+006 1.000360096252e+006 1.000320155415e+006 1.000327525101e+006 1.000323031992e+006 1.000326778293e+006 1.000327440567e+006 1.000322982059e+006 1.000354002154e+006 1.000362461013e+006 1.000356318148e+006 1.000356494497e+006 1.000358549385e+006 1.000329602377e+006 1.000321689934e+006 1.000322848146e+006 1.000329572284e+006 1.000321665178e+006 1.000605533396e+006 1.000756625089e+006 1.000633056040e+006 1.000164134912e+006 1.000016614585e+006 9.999273306774e+005 1.000414790375e+006 1.000459688381e+006 1.000259501226e+006 1.000341526061e+006 1.000899921664e+006 1.000856743883e+006 1.000346781473e+006 1.000886073031e+006 1.000589591055e+006 1.000700090441e+006 1.000389179070e+006 1.000820969010e+006 1.000782773204e+006 1.000569090545e+006 1.000808372453e+006 1.000645129388e+006 1.000516082198e+006 1.000678073502e+006 9.999349577114e+005 9.999485876818e+005 9.999147251360e+005 1.000666604411e+006 1.000603384856e+006 1.000059345228e+006 1.000004528999e+006 1.000909737398e+006 1.000312574090e+006 1.000890792006e+006 1.000653028874e+006 1.000604280032e+006 1.000686109903e+006 1.000153492183e+006 9.999868456512e+005 9.999452501537e+005 1.000568676152e+006 1.000185491984e+006 9.999129721438e+005 9.999116745855e+005 1.000563195134e+006 9.999164136627e+005 9.999220506649e+005 1.000600765492e+006 1.000174906564e+006 9.999874390112e+005 1.000249372083e+006 9.999405875671e+005 1.000046430951e+006 1.000462527918e+006 9.999669953763e+005 9.999053817326e+005 1.000519484515e+006 9.999059705610e+005 1.000111140071e+006 1.000161889704e+006 9.999539834454e+005 1.000177577666e+006 1.000005725147e+006 1.000040809707e+006 1.000163029894e+006 1.000149003906e+006 1.000253651770e+006 1.000661285126e+006 1.000682551339e+006 1.000680064290e+006 9.999364640586e+005 1.000439508407e+006 1.000880009400e+006 1.000603875288e+006 1.000602101336e+006 1.000142776536e+006 9.999510318257e+005 1.000327805682e+006 1.000141577506e+006 1.000017904625e+006 1.000031100808e+006 1.000083052483e+006 1.000515237037e+006 1.000665397393e+006 1.000667994171e+006 1.000672780423e+006 1.000875272110e+006 1.000291381618e+006 1.000799504270e+006 1.000166295755e+006 9.999384243520e+005 1.000533640682e+006 9.999628811926e+005 1.000442532359e+006 1.000654973333e+006 1.000704106201e+006 9.999091575956e+005 1.000630115181e+006 1.000587490234e+006 1.000158678489e+006 1.000839904957e+006 1.000144746336e+006 1.000305216098e+006 9.999327354151e+005 9.999848038225e+005 1.000543002798e+006 1.000874704934e+006 1.000378104823e+006 1.000728036287e+006 1.000892832105e+006 1.000888655894e+006 9.999878181202e+005 1.000880134698e+006 1.000161520511e+006 1.000724165922e+006 1.000028824863e+006 9.999753102882e+005 1.000676537760e+006 1.000834928905e+006 1.000482662636e+006 9.999186460202e+005 9.999168593299e+005 9.999017909662e+005 1.000350245549e+006 9.999384906406e+005 9.999843869239e+005 1.000041956172e+006 9.999452962671e+005 1.000302902609e+006 1.000860537703e+006 1.000374261616e+006 1.000371559627e+006 1.000626167112e+006 1.000879460291e+006 9.999492178270e+005 1.000333064488e+006 9.999837480361e+005 1.000801240529e+006 1.000216571054e+006 1.000899674784e+006 9.999445781104e+005 1.000251859094e+006 9.999586688906e+005 1.000640276188e+006 1.000790246969e+006 1.000042911123e+006 1.000818362452e+006 9.999121914143e+005 9.999602370077e+005 1.000473619919e+006 9.999901778623e+005 1.000344010101e+006 1.000203643597e+006 1.000619430115e+006 1.000601168515e+006 9.998979613037e+005 1.000938425316e+006 1.000362844731e+006 1.000412369346e+006 1.000399706027e+006 1.000812826531e+006 1.000749419887e+006 1.000781924301e+006 1.000799492685e+006 1.000518056208e+006 1.000592333538e+006 1.000570003492e+006 9.999353791973e+005 1.000361560635e+006 1.000606385180e+006 1.000656218849e+006 1.000641298238e+006 1.000660740735e+006 1.000627286042e+006 1.000653650127e+006 1.000578166696e+006 1.000658624767e+006 1.000656384509e+006 1.000668636730e+006 1.000647824159e+006 1.000291251746e+006 1.000334491030e+006 1.000414018631e+006 1.000395839489e+006 1.000391190354e+006 1.000306082289e+006 1.000321686330e+006 1.000295111441e+006 1.000436807176e+006 1.000399283230e+006 1.000399349934e+006 1.000308909097e+006 1.000325595002e+006 1.000297086996e+006 1.000388296102e+006 1.000472471476e+006 1.000381896616e+006 1.000318216299e+006 1.000298112204e+006 1.000328331361e+006 1.000382024227e+006 1.000471475038e+006 1.000378819668e+006 1.000319239298e+006 1.000362882846e+006 1.000390548869e+006 1.000386875519e+006 1.000369441986e+006 1.000365818927e+006 1.000368749102e+006 1.000390560855e+006 1.000362893939e+006 1.000386865366e+006 1.000369431764e+006 1.000365824869e+006 1.000368743948e+006 1.000318012846e+006 1.000457707066e+006 1.000331971552e+006 1.000370429069e+006 1.000313547035e+006 1.000353620102e+006 1.000457701293e+006 1.000318039960e+006 1.000331952094e+006 1.000370419116e+006 1.000313546170e+006 1.000353621099e+006 1.000462390407e+006 1.000402349689e+006 1.000292712373e+006 1.000331837954e+006 1.000402313660e+006 1.000462320503e+006 1.000292703438e+006 1.000331503889e+006 1.000419563457e+006 1.000295603300e+006 1.000479551089e+006 1.000338821397e+006 1.000453442534e+006 1.000415137927e+006 1.000295525543e+006 1.000419552391e+006 1.000479687834e+006 1.000338841174e+006 1.000453448040e+006 1.000415140058e+006 1.000301772241e+006 1.000292927650e+006 1.000326653095e+006 1.000301026686e+006 1.000293287560e+006 1.000326475323e+006 1.000387984367e+006 1.000433440124e+006 1.000379609907e+006 1.000387992037e+006 1.000433410098e+006 1.000379576932e+006 1.000306105494e+006 1.000306135968e+006 1.000428042422e+006 1.000357629519e+006 1.000310177714e+006 1.000317117319e+006 1.000427471046e+006 1.000317302481e+006 1.000394118927e+006 1.000360125011e+006 1.000366211505e+006 1.000378382099e+006 1.000394116276e+006 1.000378380325e+006 1.000330487165e+006 1.000378506149e+006 1.000331383333e+006 1.000383571436e+006 1.000473535852e+006 1.000472989646e+006 1.000383074422e+006 1.000435569432e+006 1.000291828396e+006 1.000291804652e+006 1.000394810369e+006 1.000327712568e+006 1.000394816955e+006 1.000403636551e+006 1.000384087847e+006 1.000403629515e+006 1.000400396553e+006 1.000400439759e+006 1.000362847649e+006 1.000406446471e+006 1.000406436313e+006 1.000381187340e+006 1.000330019858e+006 1.000381428554e+006 1.000359768830e+006 1.000331128173e+006 1.000340996302e+006 1.000328194471e+006 1.000346504820e+006 1.000305509122e+006 1.000346194455e+006 1.000302649981e+006 1.000120441327e+006 1.000135214079e+006 1.000433376936e+006 1.000526457447e+006 1.000242321903e+006 1.000545394959e+006 1.000903526883e+006 1.000351999959e+006 1.000831280797e+006 1.000621416848e+006 1.000296415748e+006 1.000431333815e+006 1.000518404649e+006 1.000083497637e+006 1.001348326958e+006 1.000073754224e+006 9.990435662183e+005 1.000829206187e+006 1.000211043177e+006 1.000671809487e+006 1.000776011283e+006 1.000379181360e+006 1.000688454139e+006 9.998807149554e+005 1.000483473438e+006 1.000366297376e+006 1.000883194327e+006 1.000539598566e+006 1.000185162318e+006 1.000176570570e+006 1.000410692445e+006 1.000870765573e+006 1.000131624489e+006 1.000824865731e+006 1.000488446101e+006 1.000735091818e+006 1.000067156586e+006 1.000150068926e+006 1.000155630001e+006 1.000638673387e+006 1.000103202087e+006 1.000774530319e+006 1.000427113486e+006 1.000611118833e+006 1.000758055320e+006 1.000545387352e+006 1.000299836525e+006 1.000562944820e+006 1.000242583237e+006 9.999171575550e+005 1.000440974807e+006 1.000801355796e+006 1.000418979289e+006 1.000031818283e+006 1.000012557849e+006 1.000301166065e+006 1.000357484769e+006 1.000367811158e+006 1.000643350673e+006 1.000634268924e+006 1.000792782091e+006 1.000452815539e+006 1.000574724226e+006 1.000036777878e+006 1.000844548203e+006 9.999836986274e+005 1.000440780690e+006 1.000376917820e+006 1.000448488148e+006 1.000486775259e+006 9.999396157235e+005 1.000084221305e+006 1.000786238257e+006 9.999668535315e+005 1.000048836616e+006 1.000574370262e+006 1.000547497953e+006 1.000080938400e+006 1.000105039716e+006 1.000066973871e+006 1.000336555960e+006 1.000077998131e+006 1.000520384032e+006 1.000612680929e+006 1.000553832102e+006 1.000074486400e+006 1.000261388715e+006 1.000718344294e+006 1.000802089079e+006 1.000491724257e+006 1.000164852136e+006 1.000215539997e+006 9.999995574970e+005 9.999162917687e+005 1.000585877066e+006 1.000814355533e+006 9.998768706679e+005 9.999605311155e+005 1.000569693876e+006 1.000900068103e+006 1.000464054157e+006 1.000011023767e+006 1.000637858167e+006 1.000748508367e+006 1.000450731596e+006 1.000107319080e+006 1.000848103497e+006 1.000349245552e+006 1.000421130035e+006 1.000322736336e+006 1.000332918305e+006 9.999536124035e+005 1.000076521809e+006 1.000559364314e+006 1.000851572775e+006 1.000374270957e+006 9.999736842037e+005 1.000232562755e+006 1.000607349333e+006 1.000609225189e+006 1.000846436156e+006 1.000118076760e+006 1.000019412140e+006 1.000812682047e+006 1.000744492536e+006 1.000753077363e+006 1.000421951945e+006 9.999174833521e+005 1.000484686593e+006 1.000872913160e+006 1.000360839308e+006 1.000853166037e+006 1.000854414079e+006 1.000588694819e+006 9.999821545930e+005 1.000815422752e+006 1.000796094883e+006 9.999013189934e+005 1.000087057618e+006 1.000604139784e+006 1.000390230755e+006 1.000127865289e+006 1.000205135641e+006 1.000822074168e+006 1.000388787292e+006 1.000523182927e+006 1.000837194474e+006 1.000092460156e+006 1.000308530577e+006 1.000570445927e+006 1.000170952698e+006 1.000259792428e+006 1.000683320313e+006 1.000088246683e+006 1.000196583256e+006 1.000109066081e+006 1.000855583789e+006 1.000896779689e+006 9.999932774611e+005 1.000046614080e+006 1.000165508538e+006 1.000655294681e+006 1.000360566606e+006 1.000388840575e+006 1.000870390839e+006 1.000636627078e+006 1.000368867573e+006 1.000495610509e+006 1.000824176459e+006 1.000813092546e+006 1.000539206782e+006 1.000487377664e+006 1.000099728476e+006 1.000340755019e+006 1.000065970525e+006 1.000894148807e+006 9.998749076869e+005 1.000662221651e+006 1.000454693105e+006 1.000163628688e+006 1.000016299226e+006 1.000728327078e+006 1.000012133552e+006 9.999088711258e+005 1.000335800321e+006 1.000756571824e+006 1.000321659202e+006 1.000679306584e+006 1.000471219563e+006 1.000307167935e+006 1.000806912617e+006 1.000122104861e+006 9.998831734742e+005 1.000766436550e+006 1.000246409999e+006 1.000824331336e+006 1.000048770808e+006 1.000749888165e+006 1.000388906324e+006 9.999012956652e+005 1.000780865316e+006 1.000159317809e+006 1.000832248447e+006 1.000005250501e+006 1.000412363131e+006 1.000615533253e+006 9.999769090669e+005 9.999939010169e+005 1.000644259488e+006 9.985129273772e+005 9.986765583863e+005 9.989736504022e+005 1.000181702326e+006 1.000488892607e+006 1.000804461663e+006 1.000601767068e+006 1.000073401767e+006 1.000820428471e+006 1.000225352542e+006 9.999320624588e+005 1.000771471078e+006 1.000303004427e+006 1.000382069450e+006 1.000384047352e+006 1.000488379850e+006 1.000798985277e+006 1.000390888891e+006 1.000262514144e+006 1.000679054198e+006 9.999571984722e+005 1.000618878911e+006 1.000180279141e+006 1.000656726283e+006 1.000239782564e+006 1.000582575684e+006 1.000242191127e+006 1.000202525455e+006 9.951668812205e+005 9.976227780111e+005 1.000591822124e+006 9.999210213473e+005 9.999909261927e+005 1.000516485631e+006 1.000010886801e+006 1.000337727616e+006 1.000352193201e+006 1.000417129727e+006 1.000351821515e+006 1.000414267854e+006 9.999538896105e+005 1.000251779156e+006 9.999746832257e+005 9.999377044844e+005 1.000272390574e+006 1.000408093104e+006 1.000465085276e+006 1.000407845425e+006 1.000771343825e+006 1.000331455929e+006 1.000167842948e+006 1.000432977851e+006 1.000217956995e+006 9.999549744653e+005 1.000704520101e+006 1.000857543079e+006 9.999418906588e+005 9.998816179201e+005 1.000851195090e+006 9.998796958781e+005 1.000143550399e+006 1.000667327783e+006 9.982320984372e+005 9.984272104433e+005 1.000651386097e+006 1.000824144423e+006 1.000489646037e+006 1.000690306886e+006 1.000621291651e+006 1.000607884426e+006 1.000114043383e+006 1.000290563508e+006 1.000290813547e+006 1.000661874156e+006 1.000602361960e+006 1.000137539768e+006 1.000600886917e+006 1.000590628485e+006 1.000677175373e+006 1.000800456285e+006 1.000479427886e+006 1.000023197374e+006 9.993721182018e+005 9.994719067821e+005 1.000722168363e+006 1.000828995640e+006 1.000746899322e+006 1.000187657040e+006 1.000571569194e+006 1.000650181288e+006 1.000657449332e+006 1.000510976843e+006 1.000222881344e+006 1.000384950013e+006 1.000479460951e+006 1.000544486399e+006 1.000431599019e+006 1.000383328308e+006 1.000553064733e+006 1.000380194317e+006 1.000339514199e+006 1.000371217456e+006 1.000239518993e+006 1.000333639953e+006 1.000347943912e+006 1.000486177912e+006 1.000289986348e+006 1.000420670053e+006 1.000279438580e+006 1.000460262685e+006 1.000377390957e+006 1.000480884142e+006 1.000480549930e+006 1.000481332987e+006 1.000471670199e+006 1.000345416772e+006 1.000318554602e+006 1.000207000746e+006 1.000317652124e+006 1.000208832907e+006 1.000601974092e+006 1.000352927400e+006 1.000534470176e+006 1.000356468836e+006 1.000541944338e+006 1.000408211341e+006 1.000344847543e+006 1.000425187685e+006 1.000356632830e+006 1.000356682827e+006 1.000407336360e+006 1.000425520037e+006 1.000331288507e+006 1.000420836797e+006 1.000509435893e+006 1.000415727606e+006 1.000533501926e+006 1.000244918457e+006 1.000299975359e+006 1.000239322193e+006 1.000287381005e+006 1.000514513762e+006 1.000430571178e+006 1.000515369251e+006 1.000432392020e+006 1.000398511882e+006 1.000194212429e+006 1.000602731247e+006 1.000554930674e+006 1.000415516341e+006 1.000323697493e+006 1.000195872029e+006 1.000399670734e+006 1.000598527922e+006 1.000555593956e+006 1.000416057853e+006 1.000323890302e+006 1.000313600927e+006 1.000228092082e+006 1.000408533253e+006 1.000316260117e+006 1.000225226310e+006 1.000412565595e+006 1.000625389043e+006 1.000483311974e+006 1.000547911253e+006 1.000625843184e+006 1.000462681929e+006 1.000549287925e+006 1.000101256489e+006 1.000446261066e+006 1.000117949191e+006 1.000102200685e+006 1.000469626382e+006 1.000133089399e+006 1.000706285271e+006 1.000162230456e+006 1.000679809200e+006 1.000146376148e+006 1.000271119098e+006 1.000568888996e+006 1.000270740780e+006 1.000566651499e+006 1.000330370044e+006 1.000417397001e+006 1.000385261743e+006 1.000332140930e+006 1.000416772029e+006 1.000385651976e+006 1.000289643719e+006 1.000478289660e+006 1.000289273472e+006 1.000477513747e+006 1.000495992219e+006 1.000497862411e+006 1.000446004751e+006 1.000444877472e+006 1.000189449561e+006 1.000183904527e+006 1.000163970026e+006 1.000612776646e+006 1.000109013566e+006 1.000446168511e+006 1.000598336202e+006 1.000572584819e+006 1.000178730858e+006 1.000185997775e+006 1.000193522378e+006 1.000583363588e+006 1.000273450548e+006 1.000585503947e+006 1.000272129275e+006 1.000425142373e+006 1.000154279204e+006 1.000412587385e+006 1.000149092727e+006 1.000131471344e+006 1.000643410843e+006 1.000226078780e+006 9.999539367579e+005 1.000764865224e+006 1.000709252921e+006 1.000615718933e+006 1.000559659706e+006 1.000462509545e+006 1.000605270296e+006 1.000586566878e+006 1.000547801791e+006 1.000179486675e+006 1.000367540335e+006 1.000101413893e+006 1.000436884709e+006 1.000235397706e+006 1.000106987780e+006 1.000241875780e+006 1.000167375050e+006 1.000249490645e+006 1.000734068635e+006 1.000758630207e+006 1.000244594335e+006 1.000605762534e+006 1.000233407120e+006 1.000437165100e+006 1.000622806476e+006 1.000000000000e+006 1.000000000000e+006 9.994665189818e+005 1.000660682031e+006 1.000828561997e+006 1.000160849629e+006 1.000690682646e+006 1.000691011550e+006 1.000002865302e+006 1.000807099199e+006 1.000363081272e+006 1.000752338335e+006 1.000149957338e+006 1.000109311222e+006 1.000101504628e+006 9.999627134317e+005 1.000287233582e+006 1.000158381833e+006 1.000710827539e+006 1.000833821002e+006 1.000369467156e+006 1.000138592408e+006 1.000151825311e+006 1.000730706276e+006 1.000682755503e+006 1.000663720384e+006 1.000333705782e+006 1.000332652466e+006 1.000833209068e+006 1.000347436081e+006 1.000347575128e+006 1.000200434376e+006 1.000319036052e+006 1.000696724120e+006 1.000191359541e+006 1.000078415343e+006 9.999610426065e+005 1.000248347912e+006 1.000492600633e+006 1.000178988468e+006 1.000382930659e+006 1.000104384770e+006 1.000113224682e+006 1.000213706607e+006 1.000783550906e+006 1.000590990136e+006 1.000072481927e+006 1.000756630878e+006 1.000453530415e+006 1.000757409879e+006 1.000504484680e+006 1.000407509437e+006 9.989504884211e+005 1.000779998536e+006 1.000655907214e+006 9.999562274563e+005 1.000260109112e+006 1.000818830622e+006 1.000379796846e+006 1.000379617053e+006 1.000854742438e+006 1.000598475488e+006 1.000414328112e+006 1.000184496446e+006 1.000791651595e+006 1.000694848985e+006 9.999972823134e+005 1.000316709087e+006 1.000364118156e+006 1.000587579267e+006 1.000235191765e+006 1.000181506377e+006 1.000778466018e+006 1.000608672914e+006 1.000770665419e+006 1.000803986182e+006 1.000581676899e+006 9.999587173455e+005 1.000081432973e+006 1.000255982901e+006 1.000706717544e+006 9.982771513078e+005 1.000224196992e+006 9.999503799667e+005 1.000393265331e+006 1.000146901652e+006 1.000642713416e+006 1.000889505173e+006 1.000677164878e+006 1.000689248344e+006 1.000712660215e+006 1.000686194808e+006 1.000693681665e+006 1.000794446800e+006 1.000718839344e+006 1.000165825781e+006 1.000346365954e+006 1.000189930144e+006 1.000351799263e+006 1.000653179469e+006 1.000278191678e+006 9.996256007153e+005 1.000096586287e+006 1.000677085365e+006 1.000645452944e+006 1.000801887950e+006 1.000239803458e+006 1.000231343593e+006 1.000279810723e+006 1.000355108506e+006 1.000354962171e+006 1.000415796384e+006 1.000412536276e+006 1.000762711023e+006 1.000679346229e+006 1.000244970257e+006 1.000250711507e+006 1.000268186645e+006 1.000279434423e+006 1.000663824801e+006 1.000632505888e+006 
        </DataArray>
        <DataArray type="Float64" Name="MEAN_PRESSURE" format="ascii">