<?xml version="1.0"?>
<VTKFile type="UnstructuredGrid" version="0.1" byte_order="LittleEndian">
  <UnstructuredGrid>
    <Piece NumberOfPoints="963" NumberOfCells="1758">
      <Points>
        <DataArray type="Float64" NumberOfComponents="3" format="ascii">
          1.600262034769e+002 1.257989505921e+001 0.000000000000e+000
          1.635346199106e+002 2.000000000000e+001 0.000000000000e+000
          1.554515002484e+002 2.000000000000e+001 0.000000000000e+000
          3.459306441575e+000 1.667621982453e+001 0.000000000000e+000
          3.062266634850e+000 1.705413688405e+001 0.000000000000e+000
          2.873380769063e+000 1.650527725632e+001 0.000000000000e+000
          1.514088444034e+000 1.865189448105e+001 0.000000000000e+000
          1.967902677551e+000 1.834103489750e+001 0.000000000000e+000
          2.034564522234e+000 1.890806711991e+001 0.000000000000e+000
          2.478275273162e+000 1.702762299110e+001 0.000000000000e+000
          2.952621433467e+000 1.774357373580e+001 0.000000000000e+000
          2.237893542067e+000 1.782457469610e+001 0.000000000000e+000
          3.313583922780e+000 3.274674552047e+000 0.000000000000e+000
          2.561432712787e+000 3.156040447793e+000 0.000000000000e+000
          3.047531989640e+000 2.714594415171e+000 0.000000000000e+000
          2.750804692284e+000 3.936058190693e+000 0.000000000000e+000
          2.599039179818e+000 2.451529939148e+000 0.000000000000e+000
          3.139686649742e+000 2.186924052088e+000 0.000000000000e+000
          1.919984553221e+000 3.358010194268e+000 0.000000000000e+000
          1.960900304591e+000 2.773319745251e+000 0.000000000000e+000
          1.894565400391e+000 1.733316857565e+001 0.000000000000e+000
          0.000000000000e+000 1.538461538461e+001 0.000000000000e+000
          5.816229249735e-001 1.567919247147e+001 0.000000000000e+000
          0.000000000000e+000 1.589743589743e+001 0.000000000000e+000
          9.766405669483e+001 2.000000000000e+001 0.000000000000e+000
          1.010672711393e+002 1.500000000000e+001 0.000000000000e+000
          1.029329279907e+002 2.000000000000e+001 0.000000000000e+000
          9.588503785413e+001 1.500000000000e+001 0.000000000000e+000
          1.039231647117e+002 1.000000000000e+001 0.000000000000e+000
          9.860830811271e+001 1.000000000000e+001 0.000000000000e+000
          1.010672711397e+002 5.000000000000e+000 0.000000000000e+000
          9.766405669557e+001 0.000000000000e+000 0.000000000000e+000
          1.029329279915e+002 0.000000000000e+000 0.000000000000e+000
          9.588503785449e+001 5.000000000000e+000 0.000000000000e+000
          7.892434178002e+001 2.000000000000e+001 0.000000000000e+000
          8.173808356948e+001 1.500000000000e+001 0.000000000000e+000
          8.328058896910e+001 2.000000000000e+001 0.000000000000e+000
          7.679274808893e+001 1.514423393202e+001 0.000000000000e+000
          7.970503892166e+001 1.000000000000e+001 0.000000000000e+000
          8.409930620613e+001 1.000000000000e+001 0.000000000000e+000
          8.173808356980e+001 5.000000000000e+000 0.000000000000e+000
          7.892434178065e+001 0.000000000000e+000 0.000000000000e+000
          8.328058896976e+001 0.000000000000e+000 0.000000000000e+000
          7.679274808925e+001 4.855766067979e+000 0.000000000000e+000
          1.084583939765e+002 2.000000000000e+001 0.000000000000e+000
          1.122011528880e+002 1.500000000000e+001 0.000000000000e+000
          1.142529496098e+002 2.000000000000e+001 0.000000000000e+000
          1.065018792644e+002 1.500000000000e+001 0.000000000000e+000
          1.153419838410e+002 1.000000000000e+001 0.000000000000e+000
          1.094968549120e+002 1.000000000000e+001 0.000000000000e+000
          1.122011528884e+002 5.000000000000e+000 0.000000000000e+000
          1.084583939773e+002 0.000000000000e+000 0.000000000000e+000
          1.142529496106e+002 0.000000000000e+000 0.000000000000e+000
          1.065018792648e+002 5.000000000000e+000 0.000000000000e+000
          1.181779812237e+002 1.500000000000e+001 0.000000000000e+000
          1.203297004775e+002 2.000000000000e+001 0.000000000000e+000
          1.214717707847e+002 1.000000000000e+001 0.000000000000e+000
          1.181779812242e+002 5.000000000000e+000 0.000000000000e+000
          1.203297004784e+002 0.000000000000e+000 0.000000000000e+000
          7.477039199538e+001 2.000000000000e+001 0.000000000000e+000
          7.551483469771e+001 1.000000000000e+001 0.000000000000e+000
          7.296959467356e+001 1.385646386579e+001 0.000000000000e+000
          7.477039199599e+001 0.000000000000e+000 0.000000000000e+000
          7.296959467379e+001 6.143536134207e+000 0.000000000000e+000
          6.918477198508e+001 1.366665532880e+001 0.000000000000e+000
          6.746477463053e+001 1.000000000000e+001 0.000000000000e+000
          7.151921701478e+001 1.000000000000e+001 0.000000000000e+000
          6.918477198529e+001 6.333344671202e+000 0.000000000000e+000
          9.263986346551e+001 2.000000000000e+001 0.000000000000e+000
          9.094345943471e+001 1.500000000000e+001 0.000000000000e+000
          9.354026529380e+001 1.000000000000e+001 0.000000000000e+000
          9.263986346623e+001 0.000000000000e+000 0.000000000000e+000
          9.094345943506e+001 5.000000000000e+000 0.000000000000e+000
          1.244344522558e+002 1.503312574389e+001 0.000000000000e+000
          1.267023895482e+002 2.000000000000e+001 0.000000000000e+000
          1.285510028831e+002 1.020485663255e+001 0.000000000000e+000
          1.244344522563e+002 5.033125743893e+000 0.000000000000e+000
          1.267023895491e+002 0.000000000000e+000 0.000000000000e+000
          8.623136018348e+001 1.500000000000e+001 0.000000000000e+000
          8.784898578901e+001 2.000000000000e+001 0.000000000000e+000
          8.870757443665e+001 1.000000000000e+001 0.000000000000e+000
          8.623136018382e+001 5.000000000000e+000 0.000000000000e+000
          8.784898578969e+001 0.000000000000e+000 0.000000000000e+000
          4.872472752737e+000 0.000000000000e+000 0.000000000000e+000
          4.204479229380e+000 6.412840757122e-001 0.000000000000e+000
          4.157376851380e+000 0.000000000000e+000 0.000000000000e+000
          5.192892237051e+000 7.280355562789e-001 0.000000000000e+000
          1.306630304579e+000 6.212843344151e-001 0.000000000000e+000
          1.050228457081e+000 0.000000000000e+000 0.000000000000e+000
          1.614006202528e+000 0.000000000000e+000 0.000000000000e+000
          1.266763055794e+001 1.554696422866e+001 0.000000000000e+000
          1.263589100638e+001 1.657720348306e+001 0.000000000000e+000
          1.174268578662e+001 1.633018318031e+001 0.000000000000e+000
          6.588835695415e+000 7.505681085529e+000 0.000000000000e+000
          6.456871838389e+000 6.658671683861e+000 0.000000000000e+000
          7.208099140752e+000 7.038822846307e+000 0.000000000000e+000
          4.412623338166e+000 9.138856431549e+000 0.000000000000e+000
          4.024185797397e+000 8.708923235630e+000 0.000000000000e+000
          4.601447447338e+000 8.507292699647e+000 0.000000000000e+000
          5.325995059827e-001 6.308307298123e+000 0.000000000000e+000
          0.000000000000e+000 6.666666666655e+000 0.000000000000e+000
          0.000000000000e+000 6.153846153835e+000 0.000000000000e+000
          3.986461521768e+000 8.146114708182e+000 0.000000000000e+000
          2.411603373059e+000 6.510912162016e+000 0.000000000000e+000
          1.807525763324e+000 6.938080373464e+000 0.000000000000e+000
          1.686779352680e+000 6.178928843543e+000 0.000000000000e+000
          2.510760620997e+000 7.229076682239e+000 0.000000000000e+000
          3.166991983438e+000 6.906135870389e+000 0.000000000000e+000
          3.452788915829e+000 6.276851216781e+000 0.000000000000e+000
          3.340122000742e+000 5.656365440432e+000 0.000000000000e+000
          4.047936562877e+000 5.873561587395e+000 0.000000000000e+000
          1.802463974828e+000 1.292744708026e+001 0.000000000000e+000
          1.383967161336e+000 1.330299552906e+001 0.000000000000e+000
          1.329690820161e+000 1.266495373033e+001 0.000000000000e+000
          2.267922292389e+000 1.431116835808e+001 0.000000000000e+000
          2.854613987538e+000 1.466581611369e+001 0.000000000000e+000
          2.339869278674e+000 1.493776402241e+001 0.000000000000e+000
          4.690956878046e+000 3.115726773737e+000 0.000000000000e+000
          4.014773718330e+000 2.850429494150e+000 0.000000000000e+000
          4.643493383296e+000 2.293565471327e+000 0.000000000000e+000
          5.186083944243e+000 1.661927139510e+000 0.000000000000e+000
          5.452965511439e+000 2.679881546544e+000 0.000000000000e+000
          5.360460104304e+000 3.539902157655e+000 0.000000000000e+000
          6.197986304192e+000 3.115706366113e+000 0.000000000000e+000
          7.929356606585e-001 1.634705420870e+001 0.000000000000e+000
          1.222819867503e+000 1.599517159419e+001 0.000000000000e+000
          1.215723647926e+000 1.546209040954e+001 0.000000000000e+000
          1.770601276021e+000 1.521217632514e+001 0.000000000000e+000
          1.242830150061e+000 1.493919370237e+001 0.000000000000e+000
          1.166444124506e+000 4.610115997312e+000 0.000000000000e+000
          1.851620547934e+000 4.486892013458e+000 0.000000000000e+000
          1.494152702314e+000 5.145235789232e+000 0.000000000000e+000
          1.353088107040e+000 4.090803091641e+000 0.000000000000e+000
          3.802567455935e+000 5.084697985980e+000 0.000000000000e+000
          1.014840185783e+000 5.494768572296e+000 0.000000000000e+000
          8.831064584820e-001 5.109311190608e+000 0.000000000000e+000
          1.727903958959e+000 1.618384478933e+001 0.000000000000e+000
          1.343261525342e+000 1.651800241408e+001 0.000000000000e+000
          3.308120627291e+000 8.593311644828e+000 0.000000000000e+000
[...]
      <PointData Scalars="LIQUID_PRESSURE">
        <DataArray type="Float64" Name="LIQUID_PRESSURE" format="ascii">
          1.000312612839e+006 9.996695047012e+005 1.000862238743e+006 9.998938647610e+005 1.000038816785e+006 1.000234884660e+006 1.000169228736e+006 1.000759459748e+006 1.000800013531e+006 1.000788090866e+006 1.000135960080e+006 1.000839117432e+006 9.998242755615e+005 1.000629262894e+006 1.000023961990e+006 1.000308044023e+006 1.000623583831e+006 9.998969063381e+005 1.000731585880e+006 1.000797667544e+006 1.000640307908e+006 1.000689957049e+006 1.000306178743e+006 1.000684479482e+006 1.000267348954e+006 1.000266731548e+006 1.000261587336e+006 1.000267690598e+006 1.000260393824e+006 1.000266620018e+006 1.000266731063e+006 1.000267390569e+006 1.000261691302e+006 1.000267754941e+006 1.000285695176e+006 1.000279078851e+006 1.000281687904e+006 1.000288305936e+006 1.000290685852e+006 1.000277731609e+006 1.000279161712e+006 1.000285827091e+006 1.000281652233e+006 1.000287988445e+006 1.000255994831e+006 1.000248969940e+006 1.000245625362e+006 1.000256887550e+006 1.000245227492e+006 1.000254679095e+006 1.000249531782e+006 1.000256190536e+006 1.000247611212e+006 1.000257016801e+006 1.000242420799e+006 1.000238548458e+006 1.000235041505e+006 1.000245436068e+006 1.000239894140e+006 1.000298612011e+006 1.000281233080e+006 1.000278347056e+006 1.000298263390e+006 1.000278784064e+006 1.000267674537e+006 1.000275539554e+006 1.000322084300e+006 1.000268028823e+006 1.000278759358e+006 1.000272849777e+006 1.000276824943e+006 1.000278787966e+006 1.000272854946e+006 1.000229405545e+006 1.000215976403e+006 1.000214689636e+006 1.000219589505e+006 1.000213003689e+006 1.000285671088e+006 1.000272466578e+006 1.000273973466e+006 1.000285662885e+006 1.000272488199e+006 1.000535779419e+006 1.000701279074e+006 1.000575073635e+006 1.000084490555e+006 9.999366541721e+005 9.998439490606e+005 1.000350347523e+006 1.000391584069e+006 1.000186441239e+006 1.000270399584e+006 1.000845850973e+006 1.000802947897e+006 1.000275500851e+006 1.000827028641e+006 1.000525876724e+006 1.000638641621e+006 1.000313428971e+006 1.000760375199e+006 1.000721015555e+006 1.000503156501e+006 1.000755414498e+006 1.000587545131e+006 1.000454860424e+006 1.000618277266e+006 9.998504509342e+005 9.998676811152e+005 9.998296065311e+005 1.000605534454e+006 1.000543889647e+006 9.999813675895e+005 9.999259702603e+005 1.000860966168e+006 1.000239396576e+006 1.000838462204e+006 1.000588489318e+006 1.000538792400e+006 1.000623223959e+006 1.000073665751e+006 9.999021318343e+005 9.998604316374e+005 1.000506102883e+006 1.000103417359e+006 9.998287169533e+005 9.998275914669e+005 1.000502783864e+006 9.998334517474e+005 9.998378432952e+005 1.000544676576e+006 1.000102207005e+006 9.999073353024e+005 1.000177742764e+006 9.998564624077e+005 9.999618570958e+005 1.000398397891e+006 9.998855996907e+005 9.998215482701e+005 1.000453584076e+006 9.998239502727e+005 1.000028584928e+006 1.000079499030e+006 9.998731849911e+005 1.000096268770e+006 9.999218649871e+005 9.999644760706e+005 1.000085552741e+006 1.000066575968e+006 1.000179145163e+006 1.000604169022e+006 1.000615092229e+006 1.000628304799e+006 9.998544269628e+005 1.000374752472e+006 1.000833166143e+006 1.000540115353e+006 1.000532108332e+006 1.000066114128e+006 9.998698393669e+005 1.000258686697e+006 1.000068323290e+006 9.999402388914e+005 9.999478105873e+005 9.999974930025e+005 1.000451906397e+006 1.000611169278e+006 1.000601034195e+006 1.000619238842e+006 1.000824568772e+006 1.000221542821e+006 1.000744022356e+006 1.000092399571e+006 9.998542160437e+005 1.000469549455e+006 9.998839937438e+005 1.000372229747e+006 1.000585638511e+006 1.000646967715e+006 9.998228241334e+005 1.000574716439e+006 1.000529233663e+006 1.000081197966e+006 1.000787289356e+006 1.000062087810e+006 1.000224382703e+006 9.998513761937e+005 9.999055079847e+005 1.000481627924e+006 1.000824543885e+006 1.000309345820e+006 1.000669072677e+006 1.000842966097e+006 1.000837141830e+006 9.999012353029e+005 1.000828533742e+006 1.000088343260e+006 1.000667836410e+006 9.999468940792e+005 9.998939935813e+005 1.000617333549e+006 1.000785426705e+006 1.000420576819e+006 9.998365671298e+005 9.998323630867e+005 9.998213916804e+005 1.000281987301e+006 9.998556081853e+005 9.999027751725e+005 9.999644178180e+005 9.998599302046e+005 1.000235035598e+006 1.000810358932e+006 1.000338182856e+006 1.000335039163e+006 1.000563499343e+006 1.000828879330e+006 9.998616924005e+005 1.000266166985e+006 9.999034942513e+005 1.000745949293e+006 1.000142503415e+006 1.000843621999e+006 9.998603591976e+005 1.000180620315e+006 9.998754966092e+005 1.000582440459e+006 1.000734282859e+006 9.999606009068e+005 1.000766401698e+006 9.998284886257e+005 9.998775771822e+005 1.000406467865e+006 9.999108013854e+005 1.000264993737e+006 1.000126393412e+006 1.000562054886e+006 1.000543776107e+006 9.998111856824e+005 1.000891858279e+006 1.000296656792e+006 1.000333859572e+006 1.000324453167e+006 1.000752939777e+006 1.000692312407e+006 1.000725036808e+006 1.000742653349e+006 1.000443831287e+006 1.000533331695e+006 1.000496405509e+006 9.998500645999e+005 1.000280766977e+006 1.000551001490e+006 1.000591596471e+006 1.000587476129e+006 1.000607119631e+006 1.000555611778e+006 1.000600165466e+006 1.000503720168e+006 1.000603824298e+006 1.000588440419e+006 1.000617389018e+006 1.000594948472e+006 1.000233281039e+006 1.000284622534e+006 1.000377102790e+006 1.000353666644e+006 1.000352826602e+006 1.000249177280e+006 1.000269392731e+006 1.000238636330e+006 1.000402724145e+006 1.000357641014e+006 1.000362403967e+006 1.000252628999e+006 1.000269893160e+006 1.000235337066e+006 1.000340468621e+006 1.000437867914e+006 1.000335377982e+006 1.000258112291e+006 1.000236346771e+006 1.000273075610e+006 1.000332991168e+006 1.000436881108e+006 1.000331841599e+006 1.000259310390e+006 1.000298206723e+006 1.000330614336e+006 1.000324307980e+006 1.000307755776e+006 1.000301816220e+006 1.000304988591e+006 1.000330626627e+006 1.000298217168e+006 1.000324297765e+006 1.000307740740e+006 1.000301822177e+006 1.000304980260e+006 1.000250134465e+006 1.000410158700e+006 1.000269063558e+006 1.000311173698e+006 1.000246875177e+006 1.000290626602e+006 1.000410152267e+006 1.000250165823e+006 1.000269041492e+006 1.000311162943e+006 1.000246874729e+006 1.000290627561e+006 1.000403077920e+006 1.000338273049e+006 1.000220681380e+006 1.000262080602e+006 1.000338230049e+006 1.000402997080e+006 1.000220658926e+006 1.000261728369e+006 1.000371160254e+006 1.000230126393e+006 1.000441032738e+006 1.000273607437e+006 1.000409719575e+006 1.000365230512e+006 1.000230054394e+006 1.000371150608e+006 1.000441182331e+006 1.000273628635e+006 1.000409732747e+006 1.000365232467e+006 1.000237932392e+006 1.000224290287e+006 1.000269214711e+006 1.000237079379e+006 1.000224632908e+006 1.000268984182e+006 1.000325009046e+006 1.000375837845e+006 1.000315408757e+006 1.000325010031e+006 1.000375812243e+006 1.000315378979e+006 1.000232133903e+006 1.000232209273e+006 1.000383303831e+006 1.000304984847e+006 1.000248597565e+006 1.000255124209e+006 1.000382679232e+006 1.000255312452e+006 1.000337166610e+006 1.000294809463e+006 1.000304379205e+006 1.000317580705e+006 1.000337163443e+006 1.000317576929e+006 1.000273959723e+006 1.000331745014e+006 1.000275011359e+006 1.000320187070e+006 1.000416092727e+006 1.000415545698e+006 1.000319732279e+006 1.000385983400e+006 1.000225394865e+006 1.000225376027e+006 1.000337696736e+006 1.000263378596e+006 1.000337704343e+006 1.000349741508e+006 1.000328469696e+006 1.000349732538e+006 1.000337000896e+006 1.000337025603e+006 1.000297126184e+006 1.000348802288e+006 1.000348791464e+006 1.000338368611e+006 1.000275420518e+006 1.000338501160e+006 1.000293584042e+006 1.000277587461e+006 1.000290733254e+006 1.000274197179e+006 1.000303325592e+006 1.000248856984e+006 1.000302496997e+006 1.000245440463e+006 1.000042646806e+006 1.000060122057e+006 1.000363960985e+006 1.000461313594e+006 1.000171360345e+006 1.000481533544e+006 1.000852633973e+006 1.000280588755e+006 1.000783766158e+006 1.000554476429e+006 1.000222048773e+006 1.000366451390e+006 1.000444031664e+006 1.000006383586e+006 1.001807630785e+006 9.997293192545e+005 1.000645254974e+006 1.000769520370e+006 1.000138668580e+006 1.000610586886e+006 1.000718419179e+006 1.000310028556e+006 1.000631587503e+006 9.997967216662e+005 1.000417700695e+006 1.000298642683e+006 1.000834173971e+006 1.000478133546e+006 1.000108019634e+006 1.000102913700e+006 1.000342310433e+006 1.000820169743e+006 1.000053538485e+006 1.000766033772e+006 1.000412988542e+006 1.000677431568e+006 9.999947798530e+005 1.000072099325e+006 1.000079029541e+006 1.000576395341e+006 1.000027902316e+006 1.000717046039e+006 1.000362687864e+006 1.000546985756e+006 1.000701726876e+006 1.000481756820e+006 1.000220151159e+006 1.000501045770e+006 1.000171941410e+006 9.998350155018e+005 1.000377026750e+006 1.000744870704e+006 1.000346293196e+006 9.999492936705e+005 9.999323996005e+005 1.000230109842e+006 1.000288613825e+006 1.000296461843e+006 1.000578628908e+006 1.000570841120e+006 1.000735023395e+006 1.000389040535e+006 1.000514920150e+006 9.999609084303e+005 1.000786650830e+006 9.999010198367e+005 1.000373305690e+006 1.000305788562e+006 1.000381562061e+006 1.000422389718e+006 9.998569095705e+005 1.000006653199e+006 1.000728342856e+006 9.998857999954e+005 9.999675058815e+005 1.000509700226e+006 1.000486430121e+006 1.000000129182e+006 1.000029134474e+006 9.999910615744e+005 1.000269054161e+006 9.999991582411e+005 1.000456044425e+006 1.000548792818e+006 1.000492907432e+006 9.999978227988e+005 1.000188292804e+006 1.000660738357e+006 1.000747268457e+006 1.000427893418e+006 1.000089657494e+006 1.000142179643e+006 9.999182503203e+005 9.998323620149e+005 1.000519646692e+006 1.000756905516e+006 9.997910740277e+005 9.998757920701e+005 1.000506356151e+006 1.000849888291e+006 1.000396629926e+006 9.999276642464e+005 1.000576291723e+006 1.000691569334e+006 1.000383428496e+006 1.000028273704e+006 1.000790230192e+006 1.000277484894e+006 1.000353225322e+006 1.000256376108e+006 1.000266573417e+006 9.998670257611e+005 9.999984838039e+005 1.000491628515e+006 1.000796274260e+006 1.000302129774e+006 9.998901955889e+005 1.000159296135e+006 1.000542371200e+006 1.000544642909e+006 1.000792744221e+006 1.000041727755e+006 9.999350818835e+005 1.000747922795e+006 1.000685042322e+006 1.000693329091e+006 1.000355970701e+006 9.998330229193e+005 1.000408732930e+006 1.000813141932e+006 1.000287967306e+006 1.000794994195e+006 1.000798029596e+006 1.000525325332e+006 9.999008294606e+005 1.000758375399e+006 1.000743905268e+006 9.998172025867e+005 1.000006044519e+006 1.000542078336e+006 1.000319066428e+006 1.000052272470e+006 1.000131150138e+006 1.000766344091e+006 1.000315863904e+006 1.000460439739e+006 1.000784206842e+006 1.000018127852e+006 1.000237446289e+006 1.000508738306e+006 1.000097448901e+006 1.000186130235e+006 1.000622946405e+006 1.000010157286e+006 1.000121156133e+006 1.000030357101e+006 1.000800966808e+006 1.000848814936e+006 9.999090160343e+005 9.999669177962e+005 1.000087325410e+006 1.000593789788e+006 1.000291143616e+006 1.000320671973e+006 1.000820657378e+006 1.000580682647e+006 1.000300144691e+006 1.000428921122e+006 1.000763193632e+006 1.000758064051e+006 1.000475187738e+006 1.000420818784e+006 1.000025024175e+006 1.000266929259e+006 9.999856348239e+005 1.000845531254e+006 9.997888100561e+005 1.000593974641e+006 1.000388358169e+006 1.000088019931e+006 9.999368326452e+005 1.000665635764e+006 9.999274580191e+005 9.998226221430e+005 1.000256336909e+006 1.000697798735e+006 1.000251242903e+006 1.000616523277e+006 1.000402788240e+006 1.000234358737e+006 1.000749032184e+006 1.000046380911e+006 9.997941318761e+005 1.000711387792e+006 1.000172401309e+006 1.000771249233e+006 9.999712372211e+005 1.000690910735e+006 1.000315173324e+006 9.998163607838e+005 1.000717850394e+006 1.000090947221e+006 1.000774146338e+006 9.999235335083e+005 1.000336876281e+006 1.000544429614e+006 9.998958887145e+005 9.999140758159e+005 1.000581801772e+006 9.996870742014e+005 9.996686517097e+005 9.997565173717e+005 1.000110612539e+006 1.000413199229e+006 1.000750516995e+006 1.000541512698e+006 9.999937585579e+005 1.000760452456e+006 1.000153182677e+006 9.998495069991e+005 1.000707367369e+006 1.000227687560e+006 1.000348758796e+006 1.000351272970e+006 1.000412652532e+006 1.000741604747e+006 1.000325702264e+006 1.000188947844e+006 1.000616187352e+006 9.998736684270e+005 1.000558131994e+006 1.000097033470e+006 1.000597473151e+006 1.000167344141e+006 1.000514314620e+006 1.000171509440e+006 1.000128058329e+006 9.960929845516e+005 9.987972640922e+005 1.000529965653e+006 9.998384448187e+005 9.999120641315e+005 1.000449153049e+006 9.999337223414e+005 1.000260377681e+006 1.000289097211e+006 1.000355144666e+006 1.000288338301e+006 1.000351875393e+006 9.998708871664e+005 1.000170807843e+006 9.998934102155e+005 9.998510002978e+005 1.000199136102e+006 1.000344776066e+006 1.000406773446e+006 1.000344544428e+006 1.000709942174e+006 1.000260545817e+006 1.000095561711e+006 1.000365667350e+006 1.000143658635e+006 9.998704277781e+005 1.000646716695e+006 1.000801401802e+006 9.998584516584e+005 9.997948153784e+005 1.000801527755e+006 9.997980585181e+005 1.000068211493e+006 1.000605782269e+006 9.995164639127e+005 9.994890809554e+005 1.000580276517e+006 1.000775358314e+006 1.000427494169e+006 1.000632403048e+006 1.000560864889e+006 1.000535735295e+006 1.000034964574e+006 1.000233262546e+006 1.000233363490e+006 1.000601936211e+006 1.000539419925e+006 1.000059381340e+006 1.000543655996e+006 1.000532275983e+006 1.000617446061e+006 1.000742374237e+006 1.000412025848e+006 9.999409518573e+005 9.998383790702e+005 9.998688506431e+005 1.000660633063e+006 1.000770647040e+006 1.000691281780e+006 1.000114686559e+006 1.000516715104e+006 1.000581047918e+006 1.000603283415e+006 1.000444318220e+006 1.000149557540e+006 1.000319025266e+006 1.000410497613e+006 1.000487222072e+006 1.000368549068e+006 1.000316555426e+006 1.000496660640e+006 1.000315216234e+006 1.000274036168e+006 1.000303357317e+006 1.000167089829e+006 1.000265102347e+006 1.000281887402e+006 1.000420658006e+006 1.000217766098e+006 1.000355827920e+006 1.000207956625e+006 1.000397295954e+006 1.000307898573e+006 1.000415056650e+006 1.000416673010e+006 1.000415428801e+006 1.000407735693e+006 1.000278073568e+006 1.000247813390e+006 1.000132650055e+006 1.000247197453e+006 1.000134620380e+006 1.000543594872e+006 1.000285185603e+006 1.000470214197e+006 1.000289356463e+006 1.000478127047e+006 1.000342264900e+006 1.000275572054e+006 1.000357158149e+006 1.000287784570e+006 1.000287175262e+006 1.000341528103e+006 1.000357077802e+006 1.000261412494e+006 1.000356554381e+006 1.000449495663e+006 1.000351960890e+006 1.000474567444e+006 1.000172404076e+006 1.000229859303e+006 1.000166490914e+006 1.000217253510e+006 1.000448845847e+006 1.000366111875e+006 1.000449568697e+006 1.000367661015e+006 1.000333428642e+006 1.000119937278e+006 1.000542196554e+006 1.000493120223e+006 1.000349999463e+006 1.000259039137e+006 1.000121746942e+006 1.000334608387e+006 1.000537733365e+006 1.000493897104e+006 1.000350627513e+006 1.000259477506e+006 1.000240025643e+006 1.000156921693e+006 1.000341727392e+006 1.000242516335e+006 1.000153455854e+006 1.000345801665e+006 1.000566848090e+006 1.000418096109e+006 1.000485819044e+006 1.000566361582e+006 1.000397008158e+006 1.000487100164e+006 1.000024491305e+006 1.000378505938e+006 1.000041042771e+006 1.000025171241e+006 1.000404211196e+006 1.000056988004e+006 1.000645102369e+006 1.000083652182e+006 1.000617396407e+006 1.000069821484e+006 1.000198858485e+006 1.000509302900e+006 1.000198567506e+006 1.000506523422e+006 1.000258922127e+006 1.000356433746e+006 1.000320858752e+006 1.000260826490e+006 1.000355827143e+006 1.000321225394e+006 1.000217583662e+006 1.000416583226e+006 1.000217227761e+006 1.000415801016e+006 1.000435279131e+006 1.000437549912e+006 1.000380828099e+006 1.000379761842e+006 1.000111843552e+006 1.000105527564e+006 1.000085660598e+006 1.000549601820e+006 1.000032861552e+006 1.000370808112e+006 1.000534719136e+006 1.000508741538e+006 1.000104460401e+006 1.000112568100e+006 1.000122211437e+006 1.000521074271e+006 1.000199940553e+006 1.000523281901e+006 1.000198735723e+006 1.000359132051e+006 1.000078303417e+006 1.000345627396e+006 1.000072593757e+006 1.000057334057e+006 1.000585312129e+006 1.000154737926e+006 9.998739183673e+005 1.000701585076e+006 1.000651739728e+006 1.000555688487e+006 1.000497144605e+006 1.000397217773e+006 1.000542127553e+006 1.000522189455e+006 1.000482510084e+006 1.000105064435e+006 1.000300724415e+006 1.000020452596e+006 1.000367967272e+006 1.000161425274e+006 1.000031036899e+006 1.000168364481e+006 1.000096056594e+006 1.000172183396e+006 1.000676315901e+006 1.000699605936e+006 1.000170507233e+006 1.000546533338e+006 1.000159527420e+006 1.000361319958e+006 1.000563160405e+006 1.000000000000e+006 1.000000000000e+006 9.998565866658e+005 1.000596651889e+006 1.000774657947e+006 1.000087885516e+006 1.000630553553e+006 1.000632060250e+006 9.999215676356e+005 1.000747616837e+006 1.000290924877e+006 1.000693593733e+006 1.000075572552e+006 1.000032147655e+006 1.000023122475e+006 9.998818991779e+005 1.000212126478e+006 1.000086170920e+006 1.000650578117e+006 1.000776179188e+006 1.000303578811e+006 1.000061914994e+006 1.000076784393e+006 1.000668495799e+006 1.000623509684e+006 1.000600958396e+006 1.000289783216e+006 1.000288487539e+006 1.000778923128e+006 1.000282717484e+006 1.000282882325e+006 1.000132144311e+006 1.000244252268e+006 1.000638077461e+006 1.000117316852e+006 1.000001378791e+006 9.998764955977e+005 1.000177395180e+006 1.000425911903e+006 1.000104927761e+006 1.000315830752e+006 1.000026099758e+006 1.000034413623e+006 1.000291826520e+006 1.000727496422e+006 1.000526957374e+006 1.000299603808e+006 1.000698185777e+006 1.000375725314e+006 1.000701219532e+006 1.000438364597e+006 1.000338567275e+006 9.997033852976e+005 1.000722062889e+006 1.000598106438e+006 9.998764247381e+005 1.000184520797e+006 1.000761488879e+006 1.000314685887e+006 1.000314395577e+006 1.000796236957e+006 1.000525964056e+006 1.000346650879e+006 1.000112743620e+006 1.000729966561e+006 1.000627494570e+006 9.999152905931e+005 1.000244025003e+006 1.000297161772e+006 1.000519365646e+006 1.000162044534e+006 1.000103003242e+006 1.000721995021e+006 1.000541921836e+006 1.000715149041e+006 1.000747954547e+006 1.000518408667e+006 9.998742511840e+005 1.000003578840e+006 1.000250690129e+006 1.000644431325e+006 9.996630687699e+005 1.000152010447e+006 9.998666354830e+005 1.000324239043e+006 1.000068712350e+006 1.000577645566e+006 1.000832138686e+006 1.000616215818e+006 1.000621805993e+006 1.000657145865e+006 1.000628743222e+006 1.000638047442e+006 1.000737521819e+006 1.000658378205e+006 1.000192210729e+006 1.000237927122e+006 1.000683635416e+006 1.000207479774e+006 1.000585823936e+006 1.000247613383e+006 9.995231328016e+005 1.000013503162e+006 1.000607156462e+006 1.000592331135e+006 1.000743939593e+006 1.000230147721e+006 1.000157498897e+006 1.000206150364e+006 1.000288256916e+006 1.000288063153e+006 1.000354677809e+006 1.000351256610e+006 1.000707038512e+006 1.000610053544e+006 1.000170393068e+006 1.000176198993e+006 1.000191290578e+006 1.000203096638e+006 1.000595419727e+006 1.000576781726e+006 
        </DataArray>
        <DataArray type="Float64" Name="MEAN_PRESSURE" format="ascii">