<?xml version="1.0"?>
<VTKFile type="UnstructuredGrid" version="0.1" byte_order="LittleEndian">
  <UnstructuredGrid>
    <Piece NumberOfPoints="963" NumberOfCells="1758">
      <Points>
        <DataArray type="Float64" NumberOfComponents="3" format="ascii">
          1.600262034769e+002 1.257989505921e+001 0.000000000000e+000
          1.635346199106e+002 2.000000000000e+001 0.000000000000e+000
          1.554515002484e+002 2.000000000000e+001 0.000000000000e+000
          3.459306441575e+000 1.667621982453e+001 0.000000000000e+000
          3.062266634850e+000 1.705413688405e+001 0.000000000000e+000
          2.873380769063e+000 1.650527725632e+001 0.000000000000e+000
          1.514088444034e+000 1.865189448105e+001 0.000000000000e+000
          1.967902677551e+000 1.834103489750e+001 0.000000000000e+000
          2.034564522234e+000 1.890806711991e+001 0.000000000000e+000
          2.478275273162e+000 1.702762299110e+001 0.000000000000e+000
          2.952621433467e+000 1.774357373580e+001 0.000000000000e+000
          2.237893542067e+000 1.782457469610e+001 0.000000000000e+000
          3.313583922780e+000 3.274674552047e+000 0.000000000000e+000
          2.561432712787e+000 3.156040447793e+000 0.000000000000e+000
          3.047531989640e+000 2.714594415171e+000 0.000000000000e+000
          2.750804692284e+000 3.936058190693e+000 0.000000000000e+000
          2.599039179818e+000 2.451529939148e+000 0.000000000000e+000
          3.139686649742e+000 2.186924052088e+000 0.000000000000e+000
          1.919984553221e+000 3.358010194268e+000 0.000000000000e+000
          1.960900304591e+000 2.773319745251e+000 0.000000000000e+000
          1.894565400391e+000 1.733316857565e+001 0.000000000000e+000
          0.000000000000e+000 1.538461538461e+001 0.000000000000e+000
          5.816229249735e-001 1.567919247147e+001 0.000000000000e+000
          0.000000000000e+000 1.589743589743e+001 0.000000000000e+000
          9.766405669483e+001 2.000000000000e+001 0.000000000000e+000
          1.010672711393e+002 1.500000000000e+001 0.000000000000e+000
          1.029329279907e+002 2.000000000000e+001 0.000000000000e+000
          9.588503785413e+001 1.500000000000e+001 0.000000000000e+000
          1.039231647117e+002 1.000000000000e+001 0.000000000000e+000
          9.860830811271e+001 1.000000000000e+001 0.000000000000e+000
          1.010672711397e+002 5.000000000000e+000 0.000000000000e+000
          9.766405669557e+001 0.000000000000e+000 0.000000000000e+000
          1.029329279915e+002 0.000000000000e+000 0.000000000000e+000
          9.588503785449e+001 5.000000000000e+000 0.000000000000e+000
          7.892434178002e+001 2.000000000000e+001 0.000000000000e+000
          8.173808356948e+001 1.500000000000e+001 0.000000000000e+000
          8.328058896910e+001 2.000000000000e+001 0.000000000000e+000
          7.679274808893e+001 1.514423393202e+001 0.000000000000e+000
          7.970503892166e+001 1.000000000000e+001 0.000000000000e+000
          8.409930620613e+001 1.000000000000e+001 0.000000000000e+000
          8.173808356980e+001 5.000000000000e+000 0.000000000000e+000
          7.892434178065e+001 0.000000000000e+000 0.000000000000e+000
          8.328058896976e+001 0.000000000000e+000 0.000000000000e+000
          7.679274808925e+001 4.855766067979e+000 0.000000000000e+000
          1.084583939765e+002 2.000000000000e+001 0.000000000000e+000
          1.122011528880e+002 1.500000000000e+001 0.000000000000e+000
          1.142529496098e+002 2.000000000000e+001 0.000000000000e+000
          1.065018792644e+002 1.500000000000e+001 0.000000000000e+000
          1.153419838410e+002 1.000000000000e+001 0.000000000000e+000
          1.094968549120e+002 1.000000000000e+001 0.000000000000e+000
          1.122011528884e+002 5.000000000000e+000 0.000000000000e+000
          1.084583939773e+002 0.000000000000e+000 0.000000000000e+000
          1.142529496106e+002 0.000000000000e+000 0.000000000000e+000
          1.065018792648e+002 5.000000000000e+000 0.000000000000e+000
          1.181779812237e+002 1.500000000000e+001 0.000000000000e+000
          1.203297004775e+002 2.000000000000e+001 0.000000000000e+000
          1.214717707847e+002 1.000000000000e+001 0.000000000000e+000
          1.181779812242e+002 5.000000000000e+000 0.000000000000e+000
          1.203297004784e+002 0.000000000000e+000 0.000000000000e+000
          7.477039199538e+001 2.000000000000e+001 0.000000000000e+000
          7.551483469771e+001 1.000000000000e+001 0.000000000000e+000
          7.296959467356e+001 1.385646386579e+001 0.000000000000e+000
          7.477039199599e+001 0.000000000000e+000 0.000000000000e+000
          7.296959467379e+001 6.143536134207e+000 0.000000000000e+000
          6.918477198508e+001 1.366665532880e+001 0.000000000000e+000
          6.746477463053e+001 1.000000000000e+001 0.000000000000e+000
          7.151921701478e+001 1.000000000000e+001 0.000000000000e+000
          6.918477198529e+001 6.333344671202e+000 0.000000000000e+000
          9.263986346551e+001 2.000000000000e+001 0.000000000000e+000
          9.094345943471e+001 1.500000000000e+001 0.000000000000e+000
          9.354026529380e+001 1.000000000000e+001 0.000000000000e+000
          9.263986346623e+001 0.000000000000e+000 0.000000000000e+000
          9.094345943506e+001 5.000000000000e+000 0.000000000000e+000
          1.244344522558e+002 1.503312574389e+001 0.000000000000e+000
          1.267023895482e+002 2.000000000000e+001 0.000000000000e+000
          1.285510028831e+002 1.020485663255e+001 0.000000000000e+000
          1.244344522563e+002 5.033125743893e+000 0.000000000000e+000
          1.267023895491e+002 0.000000000000e+000 0.000000000000e+000
          8.623136018348e+001 1.500000000000e+001 0.000000000000e+000
          8.784898578901e+001 2.000000000000e+001 0.000000000000e+000
          8.870757443665e+001 1.000000000000e+001 0.000000000000e+000
          8.623136018382e+001 5.000000000000e+000 0.000000000000e+000
          8.784898578969e+001 0.000000000000e+000 0.000000000000e+000
          4.872472752737e+000 0.000000000000e+000 0.000000000000e+000
          4.204479229380e+000 6.412840757122e-001 0.000000000000e+000
          4.157376851380e+000 0.000000000000e+000 0.000000000000e+000
          5.192892237051e+000 7.280355562789e-001 0.000000000000e+000
          1.306630304579e+000 6.212843344151e-001 0.000000000000e+000
          1.050228457081e+000 0.000000000000e+000 0.000000000000e+000
          1.614006202528e+000 0.000000000000e+000 0.000000000000e+000
          1.266763055794e+001 1.554696422866e+001 0.000000000000e+000
          1.263589100638e+001 1.657720348306e+001 0.000000000000e+000
          1.174268578662e+001 1.633018318031e+001 0.000000000000e+000
          6.588835695415e+000 7.505681085529e+000 0.000000000000e+000
          6.456871838389e+000 6.658671683861e+000 0.000000000000e+000
          7.208099140752e+000 7.038822846307e+000 0.000000000000e+000
          4.412623338166e+000 9.138856431549e+000 0.000000000000e+000
          4.024185797397e+000 8.708923235630e+000 0.000000000000e+000
          4.601447447338e+000 8.507292699647e+000 0.000000000000e+000
          5.325995059827e-001 6.308307298123e+000 0.000000000000e+000
          0.000000000000e+000 6.666666666655e+000 0.000000000000e+000
          0.000000000000e+000 6.153846153835e+000 0.000000000000e+000
          3.986461521768e+000 8.146114708182e+000 0.000000000000e+000
          2.411603373059e+000 6.510912162016e+000 0.000000000000e+000
          1.807525763324e+000 6.938080373464e+000 0.000000000000e+000
          1.686779352680e+000 6.178928843543e+000 0.000000000000e+000
          2.510760620997e+000 7.229076682239e+000 0.000000000000e+000
          3.166991983438e+000 6.906135870389e+000 0.000000000000e+000
          3.452788915829e+000 6.276851216781e+000 0.000000000000e+000
          3.340122000742e+000 5.656365440432e+000 0.000000000000e+000
          4.047936562877e+000 5.873561587395e+000 0.000000000000e+000
          1.802463974828e+000 1.292744708026e+001 0.000000000000e+000
          1.383967161336e+000 1.330299552906e+001 0.000000000000e+000
          1.329690820161e+000 1.266495373033e+001 0.000000000000e+000
          2.267922292389e+000 1.431116835808e+001 0.000000000000e+000
          2.854613987538e+000 1.466581611369e+001 0.000000000000e+000
          2.339869278674e+000 1.493776402241e+001 0.000000000000e+000
          4.690956878046e+000 3.115726773737e+000 0.000000000000e+000
          4.014773718330e+000 2.850429494150e+000 0.000000000000e+000
          4.643493383296e+000 2.293565471327e+000 0.000000000000e+000
          5.186083944243e+000 1.661927139510e+000 0.000000000000e+000
          5.452965511439e+000 2.679881546544e+000 0.000000000000e+000
          5.360460104304e+000 3.539902157655e+000 0.000000000000e+000
          6.197986304192e+000 3.115706366113e+000 0.000000000000e+000
          7.929356606585e-001 1.634705420870e+001 0.000000000000e+000
          1.222819867503e+000 1.599517159419e+001 0.000000000000e+000
          1.215723647926e+000 1.546209040954e+001 0.000000000000e+000
          1.770601276021e+000 1.521217632514e+001 0.000000000000e+000
          1.242830150061e+000 1.493919370237e+001 0.000000000000e+000
          1.166444124506e+000 4.610115997312e+000 0.000000000000e+000
          1.851620547934e+000 4.486892013458e+000 0.000000000000e+000
          1.494152702314e+000 5.145235789232e+000 0.000000000000e+000
          1.353088107040e+000 4.090803091641e+000 0.000000000000e+000
          3.802567455935e+000 5.084697985980e+000 0.000000000000e+000
          1.014840185783e+000 5.494768572296e+000 0.000000000000e+000
          8.831064584820e-001 5.109311190608e+000 0.000000000000e+000
          1.727903958959e+000 1.618384478933e+001 0.000000000000e+000
          1.343261525342e+000 1.651800241408e+001 0.000000000000e+000
          3.308120627291e+000 8.593311644828e+000 0.000000000000e+000
[...]
      <PointData Scalars="LIQUID_PRESSURE">
        <DataArray type="Float64" Name="LIQUID_PRESSURE" format="ascii">
          9.997415930472e+005 1.000425580617e+006 1.000891843186e+006 1.002429297953e+006 1.002591695111e+006 1.002808170614e+006 1.002761720636e+006 1.003455452099e+006 1.003516081755e+006 1.003464552829e+006 1.002690299752e+006 1.003552495068e+006 1.002341488403e+006 1.003293920974e+006 1.002563585238e+006 1.002919091492e+006 1.003269940152e+006 1.002426016318e+006 1.003424662887e+006 1.003510343830e+006 1.003319682001e+006 1.003358968296e+006 1.002834617640e+006 1.003346495800e+006 1.001814114958e+006 1.001765100551e+006 1.001714092682e+006 1.001814284479e+006 1.001691058786e+006 1.001802885846e+006 1.001764759709e+006 1.001813816613e+006 1.001715973508e+006 1.001814515378e+006 1.002181882187e+006 1.002092857394e+006 1.002081205431e+006 1.002200075228e+006 1.002194244000e+006 1.002033193572e+006 1.002092891476e+006 1.002181512653e+006 1.002081322932e+006 1.002199474329e+006 1.001616482294e+006 1.001523773460e+006 1.001469914789e+006 1.001624438302e+006 1.001442379866e+006 1.001599487368e+006 1.001527205499e+006 1.001612437584e+006 1.001478686708e+006 1.001625115640e+006 1.001454019844e+006 1.001339751925e+006 1.001325878424e+006 1.001441953888e+006 1.001337192911e+006 1.002244055613e+006 1.002189255208e+006 1.002239382952e+006 1.002245291674e+006 1.002241887254e+006 1.002210482411e+006 1.002330927667e+006 1.002387537371e+006 1.002208781286e+006 1.001978836188e+006 1.001928861840e+006 1.001941945337e+006 1.001978932847e+006 1.001928827716e+006 1.001285729277e+006 1.001285521614e+006 1.001264365701e+006 1.001298753350e+006 1.001262869672e+006 1.002095230356e+006 1.001947453347e+006 1.001965085903e+006 1.002095285514e+006 1.001947471660e+006 1.003087712138e+006 1.003376838827e+006 1.003243524976e+006 1.002602887242e+006 1.002480065298e+006 1.002358262073e+006 1.002984326823e+006 1.002958349551e+006 1.002742653201e+006 1.002826255620e+006 1.003495018192e+006 1.003461847610e+006 1.002837792069e+006 1.003445025812e+006 1.003152681598e+006 1.003256133467e+006 1.002838029059e+006 1.003370116691e+006 1.003329326850e+006 1.003114905923e+006 1.003435163652e+006 1.003255588435e+006 1.003106786664e+006 1.003258088856e+006 1.002373204595e+006 1.002425390075e+006 1.002350049064e+006 1.003243551223e+006 1.003202698251e+006 1.002537123979e+006 1.002480386962e+006 1.003566631236e+006 1.002805140906e+006 1.003518453976e+006 1.003178866090e+006 1.003148703645e+006 1.003229897209e+006 1.002590976649e+006 1.002404324894e+006 1.002367525801e+006 1.003132225278e+006 1.002595357097e+006 1.002343302828e+006 1.002346439791e+006 1.003156329950e+006 1.002361310369e+006 1.002348226893e+006 1.003234784170e+006 1.002695107298e+006 1.002456864728e+006 1.002779973766e+006 1.002362289026e+006 1.002448438735e+006 1.003031902722e+006 1.002423595755e+006 1.002359211711e+006 1.003062677393e+006 1.002370828082e+006 1.002527091418e+006 1.002571734166e+006 1.002412150750e+006 1.002595228261e+006 1.002419656559e+006 1.002539391153e+006 1.002634355547e+006 1.002559900018e+006 1.002742642566e+006 1.003263931004e+006 1.003188577698e+006 1.003324091566e+006 1.002386650153e+006 1.003008299557e+006 1.003562074532e+006 1.003163370619e+006 1.003082078993e+006 1.002614136670e+006 1.002413419661e+006 1.002857934554e+006 1.002657510146e+006 1.002504056253e+006 1.002444858667e+006 1.002470880144e+006 1.003086797813e+006 1.003300289151e+006 1.003180061073e+006 1.003308887335e+006 1.003519528501e+006 1.002832483970e+006 1.003411580454e+006 1.002675205590e+006 1.002362924962e+006 1.003088703205e+006 1.002446385754e+006 1.002959307290e+006 1.003144825619e+006 1.003305841059e+006 1.002316955129e+006 1.003260651319e+006 1.003196020227e+006 1.002629739250e+006 1.003463541909e+006 1.002550776871e+006 1.002715737830e+006 1.002398722366e+006 1.002466908722e+006 1.003132236737e+006 1.003523600348e+006 1.002906977795e+006 1.003291280715e+006 1.003543186990e+006 1.003525492558e+006 1.002381841181e+006 1.003514246276e+006 1.002672284684e+006 1.003327917145e+006 1.002490735589e+006 1.002448363102e+006 1.003270122934e+006 1.003498184968e+006 1.003069541896e+006 1.002368880594e+006 1.002334356925e+006 1.002369894441e+006 1.002893035217e+006 1.002392585225e+006 1.002439766786e+006 1.002525298585e+006 1.002355352059e+006 1.002852196689e+006 1.003514066584e+006 1.002554177088e+006 1.002548736516e+006 1.003182936009e+006 1.003521570879e+006 1.002337840379e+006 1.002883986111e+006 1.002441121448e+006 1.003392340774e+006 1.002729702948e+006 1.003487716525e+006 1.002370596465e+006 1.002776673106e+006 1.002387560545e+006 1.003252065274e+006 1.003392274907e+006 1.002464394012e+006 1.003464842093e+006 1.002348173378e+006 1.002404175008e+006 1.003007193872e+006 1.002475096903e+006 1.002769795330e+006 1.002687372461e+006 1.003235385564e+006 1.003219275960e+006 1.002323675178e+006 1.003615057846e+006 1.002919517510e+006 1.002835816260e+006 1.002851617777e+006 1.003377801184e+006 1.003342212168e+006 1.003372125291e+006 1.003381313640e+006 1.002975061623e+006 1.003176732345e+006 1.003026287600e+006 1.002346248793e+006 1.002766544895e+006 1.003219416249e+006 1.003193540856e+006 1.003275847381e+006 1.003296112491e+006 1.003094740692e+006 1.003292864532e+006 1.003025558615e+006 1.003283239797e+006 1.003159881321e+006 1.003320562823e+006 1.003293188699e+006 1.002337396200e+006 1.002398800269e+006 1.002588811149e+006 1.002595321108e+006 1.002548804888e+006 1.002353225889e+006 1.002358406340e+006 1.002360111007e+006 1.002629298738e+006 1.002606220459e+006 1.002569171421e+006 1.002362707065e+006 1.002514771611e+006 1.002372202070e+006 1.002548063870e+006 1.002855603384e+006 1.002581286869e+006 1.002435582162e+006 1.002371166159e+006 1.002520188667e+006 1.002531586148e+006 1.002855185026e+006 1.002574132625e+006 1.002437833795e+006 1.002716415121e+006 1.002766875011e+006 1.002717976081e+006 1.002766499491e+006 1.002693062690e+006 1.002728329568e+006 1.002766871061e+006 1.002716392821e+006 1.002717942512e+006 1.002766476990e+006 1.002693062426e+006 1.002728327236e+006 1.002590766964e+006 1.002874690993e+006 1.002616640274e+006 1.002728464184e+006 1.002553087727e+006 1.002660076511e+006 1.002874681224e+006 1.002590830113e+006 1.002616601844e+006 1.002728439014e+006 1.002553086647e+006 1.002660072273e+006 1.002912859508e+006 1.002808870031e+006 1.002633778465e+006 1.002722968875e+006 1.002808870971e+006 1.002912930459e+006 1.002633754826e+006 1.002722579135e+006 1.002794988439e+006 1.002492909987e+006 1.002881998446e+006 1.002566072082e+006 1.002814398915e+006 1.002767993367e+006 1.002492840385e+006 1.002794975521e+006 1.002882161077e+006 1.002566097567e+006 1.002814416877e+006 1.002767984280e+006 1.002447088737e+006 1.002401012802e+006 1.002533691522e+006 1.002445968247e+006 1.002401283844e+006 1.002533344969e+006 1.002784824801e+006 1.002877250905e+006 1.002751696404e+006 1.002784806404e+006 1.002877341344e+006 1.002751755346e+006 1.002618574292e+006 1.002618763692e+006 1.002705820826e+006 1.002617574043e+006 1.002426843718e+006 1.002511923243e+006 1.002705119279e+006 1.002512099841e+006 1.002774216204e+006 1.002682372493e+006 1.002690621354e+006 1.002756651954e+006 1.002774206207e+006 1.002756644093e+006 1.002472463490e+006 1.002605542347e+006 1.002474292080e+006 1.002811792013e+006 1.002947874739e+006 1.002947977637e+006 1.002812065061e+006 1.002743059465e+006 1.002491363707e+006 1.002491375700e+006 1.002737354188e+006 1.002603689948e+006 1.002737366697e+006 1.002742547121e+006 1.002692283284e+006 1.002742522113e+006 1.002794565012e+006 1.002794510898e+006 1.002712247494e+006 1.002834847836e+006 1.002834871810e+006 1.002604836274e+006 1.002381964539e+006 1.002603203059e+006 1.002735714151e+006 1.002351659832e+006 1.002370127246e+006 1.002346134145e+006 1.002411289447e+006 1.002204013490e+006 1.002399807176e+006 1.002193789753e+006 1.002578264782e+006 1.002633182727e+006 1.002925492875e+006 1.003064347244e+006 1.002764929027e+006 1.003103612498e+006 1.003546691973e+006 1.002857671200e+006 1.003505840816e+006 1.003126769361e+006 1.002768954940e+006 1.002993192451e+006 1.002968274964e+006 1.002569110135e+006 1.000502193501e+006 1.001002701201e+006 9.989271059237e+005 1.003375373988e+006 1.002717915891e+006 1.003217350345e+006 1.003354521932e+006 1.002921703196e+006 1.003293983700e+006 1.002311289238e+006 1.003042180950e+006 1.002914688955e+006 1.003541427150e+006 1.003124776190e+006 1.002640949124e+006 1.002668958598e+006 1.002934147476e+006 1.003519502338e+006 1.002601110524e+006 1.003391560101e+006 1.002932626044e+006 1.003321674577e+006 1.002596937344e+006 1.002602505776e+006 1.002617512958e+006 1.003176070022e+006 1.002596232530e+006 1.003353894377e+006 1.002990226133e+006 1.003129305096e+006 1.003343598414e+006 1.003097847586e+006 1.002722816141e+006 1.003145534881e+006 1.002783519430e+006 1.002385544391e+006 1.003006156421e+006 1.003380429792e+006 1.002885784429e+006 1.002462642601e+006 1.002486998768e+006 1.002818452436e+006 1.002867136282e+006 1.002851725154e+006 1.003158843405e+006 1.003165829226e+006 1.003369723553e+006 1.002995049095e+006 1.003139045433e+006 1.002519848763e+006 1.003426474631e+006 1.002424866969e+006 1.002973363521e+006 1.002851403650e+006 1.002952348809e+006 1.003049033167e+006 1.002383589138e+006 1.002551098012e+006 1.003359267371e+006 1.002422095206e+006 1.002482288210e+006 1.003110421819e+006 1.003121347106e+006 1.002529046648e+006 1.002592015186e+006 1.002552563212e+006 1.002853766654e+006 1.002527255899e+006 1.003050102165e+006 1.003134804632e+006 1.003111363739e+006 1.002548293394e+006 1.002741701966e+006 1.003280102578e+006 1.003418572545e+006 1.003065770023e+006 1.002647840754e+006 1.002707502836e+006 1.002445919007e+006 1.002361157688e+006 1.003102542729e+006 1.003393615890e+006 1.002294463453e+006 1.002372326164e+006 1.003129039624e+006 1.003549895432e+006 1.002995301153e+006 1.002442660359e+006 1.003193343377e+006 1.003326540820e+006 1.002962324980e+006 1.002567369487e+006 1.003400798359e+006 1.002830449351e+006 1.002946651466e+006 1.002878786028e+006 1.002886508860e+006 1.002358970348e+006 1.002545747979e+006 1.003064431371e+006 1.003433502622e+006 1.002860248088e+006 1.002402520611e+006 1.002725946540e+006 1.003119252711e+006 1.003133691487e+006 1.003464541201e+006 1.002617514152e+006 1.002431792179e+006 1.003303347554e+006 1.003310065234e+006 1.003299348240e+006 1.002961672741e+006 1.002336876205e+006 1.002924284216e+006 1.003427459019e+006 1.002834791810e+006 1.003429144627e+006 1.003424348168e+006 1.003139022578e+006 1.002438613490e+006 1.003388802967e+006 1.003439981223e+006 1.002350059767e+006 1.002536461629e+006 1.003179842356e+006 1.002871722417e+006 1.002611921384e+006 1.002686613269e+006 1.003400257267e+006 1.002863708242e+006 1.003100081003e+006 1.003464308690e+006 1.002590613816e+006 1.002801414157e+006 1.003119941675e+006 1.002668093166e+006 1.002758482000e+006 1.003228830666e+006 1.002540108487e+006 1.002661871242e+006 1.002577236818e+006 1.003461514815e+006 1.003564891025e+006 1.002408785246e+006 1.002495249401e+006 1.002619810028e+006 1.003202110329e+006 1.002864607159e+006 1.002901882667e+006 1.003526914758e+006 1.003265004475e+006 1.002894795010e+006 1.003015369130e+006 1.003339277873e+006 1.003397863448e+006 1.003092916609e+006 1.003021349546e+006 1.002606458975e+006 1.002803879002e+006 1.002506511426e+006 1.003554634165e+006 1.002290317619e+006 1.003164827947e+006 1.003010861903e+006 1.002666224218e+006 1.002481790169e+006 1.003251759025e+006 1.002427359085e+006 1.002319391372e+006 1.002756211666e+006 1.003321028911e+006 1.002824659498e+006 1.003204917405e+006 1.002994371883e+006 1.002789987017e+006 1.003381169742e+006 1.002603636104e+006 1.002274899446e+006 1.003384272652e+006 1.002742889547e+006 1.003453701443e+006 1.002531751796e+006 1.003301762802e+006 1.002872728039e+006 1.002339752491e+006 1.003299492945e+006 1.002695558428e+006 1.003379822213e+006 1.002457480981e+006 1.002862378674e+006 1.003091669335e+006 1.002424512417e+006 1.002458623416e+006 1.003182270560e+006 9.997859992417e+005 9.995961597996e+005 9.997468477637e+005 1.002710939378e+006 1.002931867310e+006 1.003422429379e+006 1.003182040911e+006 1.002541954454e+006 1.003374172090e+006 1.002735554949e+006 1.002395652455e+006 1.003290328195e+006 1.002763800104e+006 1.002486157412e+006 1.002495097406e+006 1.002930944086e+006 1.003376580560e+006 1.002953537357e+006 1.002747495432e+006 1.003200682230e+006 1.002393702893e+006 1.003179579476e+006 1.002582492044e+006 1.003219078741e+006 1.002753890033e+006 1.003067333930e+006 1.002762821401e+006 1.002681952350e+006 9.996171177193e+005 9.986298311171e+005 1.003167585017e+006 1.002370783980e+006 1.002462380866e+006 1.003038670570e+006 1.002503149921e+006 1.002779211081e+006 1.002814335995e+006 1.002874357252e+006 1.002811053450e+006 1.002869420969e+006 1.002411220331e+006 1.002666095161e+006 1.002427336416e+006 1.002341333886e+006 1.002631508871e+006 1.002838821210e+006 1.002922744373e+006 1.002838197859e+006 1.003295662523e+006 1.002814547962e+006 1.002685695673e+006 1.002953337683e+006 1.002730025915e+006 1.002393121256e+006 1.003305657929e+006 1.003445909710e+006 1.002370721573e+006 1.002285841814e+006 1.003510921965e+006 1.002336626026e+006 1.002620365181e+006 1.003211067524e+006 9.991357179442e+005 9.992875850710e+005 1.003126937007e+006 1.003494439511e+006 1.003081773985e+006 1.003286399556e+006 1.003194114253e+006 1.003074689636e+006 1.002565532786e+006 1.002127960995e+006 1.002124188407e+006 1.003208271689e+006 1.003153174700e+006 1.002574616545e+006 1.003171416696e+006 1.003145927162e+006 1.003236932069e+006 1.003387048277e+006 1.003022749545e+006 1.002448528434e+006 9.998068944674e+005 9.998519314388e+005 1.003246596836e+006 1.003400355177e+006 1.003342967939e+006 1.002676780337e+006 1.003197061999e+006 1.003140947137e+006 1.003289203248e+006 1.003012854540e+006 1.002615615777e+006 1.002810277758e+006 1.002861057460e+006 1.003050681265e+006 1.002895508824e+006 1.002800882101e+006 1.003067626077e+006 1.002833634055e+006 1.002806869036e+006 1.002822629874e+006 1.002657657852e+006 1.002785325582e+006 1.002812698190e+006 1.002946972240e+006 1.002717102315e+006 1.002899662626e+006 1.002713339178e+006 1.002950014713e+006 1.002819356427e+006 1.002951671962e+006 1.002969541046e+006 1.002952029038e+006 1.002961514976e+006 1.002822814204e+006 1.002778039549e+006 1.002641985156e+006 1.002779487087e+006 1.002645384836e+006 1.003144560827e+006 1.002847698319e+006 1.003034904708e+006 1.002853295436e+006 1.003043008794e+006 1.002842629101e+006 1.002756870060e+006 1.002843274439e+006 1.002781614331e+006 1.002764997215e+006 1.002842120606e+006 1.002839236413e+006 1.002750618792e+006 1.002890854254e+006 1.003017527087e+006 1.002891135167e+006 1.003046974914e+006 1.002680913423e+006 1.002753292108e+006 1.002673929934e+006 1.002742666450e+006 1.002990370328e+006 1.002924984113e+006 1.002990684494e+006 1.002924630938e+006 1.002875062109e+006 1.002626531503e+006 1.003089109930e+006 1.003062420153e+006 1.002878459304e+006 1.002825838743e+006 1.002628612403e+006 1.002876606740e+006 1.003083753860e+006 1.003062742920e+006 1.002879944120e+006 1.002827730266e+006 1.002746961882e+006 1.002695603906e+006 1.002889351541e+006 1.002746511849e+006 1.002687146650e+006 1.002892543351e+006 1.003160923807e+006 1.002973762539e+006 1.003060080028e+006 1.003154363471e+006 1.002953659550e+006 1.003060151478e+006 1.002535993643e+006 1.002929291402e+006 1.002553827343e+006 1.002539112857e+006 1.002973782434e+006 1.002574446522e+006 1.003218388997e+006 1.002587302847e+006 1.003187745519e+006 1.002596184204e+006 1.002719113851e+006 1.003099571796e+006 1.002720353836e+006 1.003092432675e+006 1.002726330438e+006 1.002890361666e+006 1.002837476528e+006 1.002728320190e+006 1.002890178123e+006 1.002837731689e+006 1.002696660880e+006 1.002948827225e+006 1.002695810257e+006 1.002948527269e+006 1.003004013274e+006 1.003008491451e+006 1.002934375428e+006 1.002932777257e+006 1.002599657305e+006 1.002587481409e+006 1.002608993513e+006 1.003145970056e+006 1.002581326481e+006 1.002898134380e+006 1.003094427632e+006 1.003068206310e+006 1.002648404431e+006 1.002659241884e+006 1.002673788035e+006 1.003104478756e+006 1.002728636393e+006 1.003103942053e+006 1.002724143053e+006 1.002920395151e+006 1.002596703935e+006 1.002902026051e+006 1.002585877343e+006 1.002594177647e+006 1.003228939653e+006 1.002703576001e+006 1.002419590226e+006 1.003276878601e+006 1.003268262610e+006 1.003168413647e+006 1.003080528355e+006 1.002973920493e+006 1.003118667860e+006 1.003091213377e+006 1.003049913712e+006 1.002646214325e+006 1.002875703229e+006 1.002516511862e+006 1.002918567389e+006 1.002697584255e+006 1.002569282559e+006 1.002709826518e+006 1.002669188330e+006 1.002681967539e+006 1.003290046936e+006 1.003317889962e+006 1.002730967157e+006 1.003165803191e+006 1.002728883995e+006 1.002881492969e+006 1.003168755905e+006 1.000000000000e+006 1.000000000000e+006 9.998218436775e+005 1.003178213922e+006 1.003435581736e+006 1.002675370726e+006 1.003256468977e+006 1.003261351714e+006 1.002473496797e+006 1.003368425332e+006 1.002858691238e+006 1.003323915149e+006 1.002639681526e+006 1.002570624872e+006 1.002552129475e+006 1.002444618102e+006 1.002760533314e+006 1.002664873844e+006 1.003247238763e+006 1.003399374520e+006 1.002901038008e+006 1.002604070258e+006 1.002632313830e+006 1.003253211173e+006 1.003217320939e+006 1.003195799234e+006 1.002276467798e+006 1.002273672268e+006 1.003447148423e+006 1.002756243321e+006 1.002756544284e+006 1.002727896975e+006 1.002785168066e+006 1.003271377425e+006 1.002656013622e+006 1.002566433634e+006 1.002383481364e+006 1.002774881819e+006 1.002987679997e+006 1.002652141812e+006 1.002894756871e+006 1.002568502460e+006 1.001112822613e+006 1.001178406106e+006 1.003369680120e+006 1.003116344530e+006 1.000889679758e+006 1.003335028826e+006 1.002879064453e+006 1.003348520536e+006 1.003006323661e+006 1.002915165421e+006 9.996152324023e+005 1.003378747578e+006 1.003263246059e+006 1.002432353317e+006 1.002714042539e+006 1.003399385467e+006 1.002819048572e+006 1.002817783483e+006 1.003428618293e+006 1.003062364509e+006 1.002936544995e+006 1.002724780926e+006 1.003337242647e+006 1.003199542936e+006 1.002461269663e+006 1.002820216566e+006 1.002912168296e+006 1.003086374705e+006 1.002727325471e+006 1.002635931143e+006 1.003367934348e+006 1.003120851308e+006 1.003374929319e+006 1.003383994400e+006 1.003115211627e+006 1.002407888687e+006 1.002539893854e+006 1.001133613758e+006 1.003229063620e+006 9.997553745069e+005 1.002707764383e+006 1.002385780185e+006 1.002895055116e+006 1.002614769579e+006 1.003138947141e+006 1.003449822920e+006 1.003190593352e+006 1.003191775439e+006 1.003318063190e+006 1.003285807732e+006 1.003309827840e+006 1.003381157396e+006 1.003280947629e+006 1.001189294512e+006 1.001234114510e+006 1.000911243558e+006 1.001238111980e+006 1.003159464944e+006 1.001201597550e+006 1.001037901588e+006 1.002507684605e+006 1.003162052288e+006 1.003263733865e+006 1.003363655151e+006 1.001262314121e+006 1.002725642226e+006 1.002766126470e+006 1.002748829606e+006 1.002748517260e+006 1.002897758519e+006 1.002893948891e+006 1.003363217776e+006 1.003173836974e+006 1.002639475531e+006 1.002643947749e+006 1.002631936806e+006 1.002648002336e+006 1.003160598360e+006 1.003235481076e+006 
        </DataArray>
        <DataArray type="Float64" Name="MEAN_PRESSURE" format="ascii">