<?xml version="1.0"?>
<VTKFile type="UnstructuredGrid" version="0.1" byte_order="LittleEndian">
  <UnstructuredGrid>
    <Piece NumberOfPoints="963" NumberOfCells="1758">
      <Points>
        <DataArray type="Float64" NumberOfComponents="3" format="ascii">
          1.600262034769e+002 1.257989505921e+001 0.000000000000e+000
          1.635346199106e+002 2.000000000000e+001 0.000000000000e+000
          1.554515002484e+002 2.000000000000e+001 0.000000000000e+000
          3.459306441575e+000 1.667621982453e+001 0.000000000000e+000
          3.062266634850e+000 1.705413688405e+001 0.000000000000e+000
          2.873380769063e+000 1.650527725632e+001 0.000000000000e+000
          1.514088444034e+000 1.865189448105e+001 0.000000000000e+000
          1.967902677551e+000 1.834103489750e+001 0.000000000000e+000
          2.034564522234e+000 1.890806711991e+001 0.000000000000e+000
          2.478275273162e+000 1.702762299110e+001 0.000000000000e+000
          2.952621433467e+000 1.774357373580e+001 0.000000000000e+000
          2.237893542067e+000 1.782457469610e+001 0.000000000000e+000
          3.313583922780e+000 3.274674552047e+000 0.000000000000e+000
          2.561432712787e+000 3.156040447793e+000 0.000000000000e+000
          3.047531989640e+000 2.714594415171e+000 0.000000000000e+000
          2.750804692284e+000 3.936058190693e+000 0.000000000000e+000
          2.599039179818e+000 2.451529939148e+000 0.000000000000e+000
          3.139686649742e+000 2.186924052088e+000 0.000000000000e+000
          1.919984553221e+000 3.358010194268e+000 0.000000000000e+000
          1.960900304591e+000 2.773319745251e+000 0.000000000000e+000
          1.894565400391e+000 1.733316857565e+001 0.000000000000e+000
          0.000000000000e+000 1.538461538461e+001 0.000000000000e+000
          5.816229249735e-001 1.567919247147e+001 0.000000000000e+000
          0.000000000000e+000 1.589743589743e+001 0.000000000000e+000
          9.766405669483e+001 2.000000000000e+001 0.000000000000e+000
          1.010672711393e+002 1.500000000000e+001 0.000000000000e+000
          1.029329279907e+002 2.000000000000e+001 0.000000000000e+000
          9.588503785413e+001 1.500000000000e+001 0.000000000000e+000
          1.039231647117e+002 1.000000000000e+001 0.000000000000e+000
          9.860830811271e+001 1.000000000000e+001 0.000000000000e+000
          1.010672711397e+002 5.000000000000e+000 0.000000000000e+000
          9.766405669557e+001 0.000000000000e+000 0.000000000000e+000
          1.029329279915e+002 0.000000000000e+000 0.000000000000e+000
          9.588503785449e+001 5.000000000000e+000 0.000000000000e+000
          7.892434178002e+001 2.000000000000e+001 0.000000000000e+000
          8.173808356948e+001 1.500000000000e+001 0.000000000000e+000
          8.328058896910e+001 2.000000000000e+001 0.000000000000e+000
          7.679274808893e+001 1.514423393202e+001 0.000000000000e+000
          7.970503892166e+001 1.000000000000e+001 0.000000000000e+000
          8.409930620613e+001 1.000000000000e+001 0.000000000000e+000
          8.173808356980e+001 5.000000000000e+000 0.000000000000e+000
          7.892434178065e+001 0.000000000000e+000 0.000000000000e+000
          8.328058896976e+001 0.000000000000e+000 0.000000000000e+000
          7.679274808925e+001 4.855766067979e+000 0.000000000000e+000
          1.084583939765e+002 2.000000000000e+001 0.000000000000e+000
          1.122011528880e+002 1.500000000000e+001 0.000000000000e+000
          1.142529496098e+002 2.000000000000e+001 0.000000000000e+000
          1.065018792644e+002 1.500000000000e+001 0.000000000000e+000
          1.153419838410e+002 1.000000000000e+001 0.000000000000e+000
          1.094968549120e+002 1.000000000000e+001 0.000000000000e+000
          1.122011528884e+002 5.000000000000e+000 0.000000000000e+000
          1.084583939773e+002 0.000000000000e+000 0.000000000000e+000
          1.142529496106e+002 0.000000000000e+000 0.000000000000e+000
          1.065018792648e+002 5.000000000000e+000 0.000000000000e+000
          1.181779812237e+002 1.500000000000e+001 0.000000000000e+000
          1.203297004775e+002 2.000000000000e+001 0.000000000000e+000
          1.214717707847e+002 1.000000000000e+001 0.000000000000e+000
          1.181779812242e+002 5.000000000000e+000 0.000000000000e+000
          1.203297004784e+002 0.000000000000e+000 0.000000000000e+000
          7.477039199538e+001 2.000000000000e+001 0.000000000000e+000
          7.551483469771e+001 1.000000000000e+001 0.000000000000e+000
          7.296959467356e+001 1.385646386579e+001 0.000000000000e+000
          7.477039199599e+001 0.000000000000e+000 0.000000000000e+000
          7.296959467379e+001 6.143536134207e+000 0.000000000000e+000
          6.918477198508e+001 1.366665532880e+001 0.000000000000e+000
          6.746477463053e+001 1.000000000000e+001 0.000000000000e+000
          7.151921701478e+001 1.000000000000e+001 0.000000000000e+000
          6.918477198529e+001 6.333344671202e+000 0.000000000000e+000
          9.263986346551e+001 2.000000000000e+001 0.000000000000e+000
          9.094345943471e+001 1.500000000000e+001 0.000000000000e+000
          9.354026529380e+001 1.000000000000e+001 0.000000000000e+000
          9.263986346623e+001 0.000000000000e+000 0.000000000000e+000
          9.094345943506e+001 5.000000000000e+000 0.000000000000e+000
          1.244344522558e+002 1.503312574389e+001 0.000000000000e+000
          1.267023895482e+002 2.000000000000e+001 0.000000000000e+000
          1.285510028831e+002 1.020485663255e+001 0.000000000000e+000
          1.244344522563e+002 5.033125743893e+000 0.000000000000e+000
          1.267023895491e+002 0.000000000000e+000 0.000000000000e+000
          8.623136018348e+001 1.500000000000e+001 0.000000000000e+000
          8.784898578901e+001 2.000000000000e+001 0.000000000000e+000
          8.870757443665e+001 1.000000000000e+001 0.000000000000e+000
          8.623136018382e+001 5.000000000000e+000 0.000000000000e+000
          8.784898578969e+001 0.000000000000e+000 0.000000000000e+000
          4.872472752737e+000 0.000000000000e+000 0.000000000000e+000
          4.204479229380e+000 6.412840757122e-001 0.000000000000e+000
          4.157376851380e+000 0.000000000000e+000 0.000000000000e+000
          5.192892237051e+000 7.280355562789e-001 0.000000000000e+000
          1.306630304579e+000 6.212843344151e-001 0.000000000000e+000
          1.050228457081e+000 0.000000000000e+000 0.000000000000e+000
          1.614006202528e+000 0.000000000000e+000 0.000000000000e+000
          1.266763055794e+001 1.554696422866e+001 0.000000000000e+000
          1.263589100638e+001 1.657720348306e+001 0.000000000000e+000
          1.174268578662e+001 1.633018318031e+001 0.000000000000e+000
          6.588835695415e+000 7.505681085529e+000 0.000000000000e+000
          6.456871838389e+000 6.658671683861e+000 0.000000000000e+000
          7.208099140752e+000 7.038822846307e+000 0.000000000000e+000
          4.412623338166e+000 9.138856431549e+000 0.000000000000e+000
          4.024185797397e+000 8.708923235630e+000 0.000000000000e+000
          4.601447447338e+000 8.507292699647e+000 0.000000000000e+000
          5.325995059827e-001 6.308307298123e+000 0.000000000000e+000
          0.000000000000e+000 6.666666666655e+000 0.000000000000e+000
          0.000000000000e+000 6.153846153835e+000 0.000000000000e+000
          3.986461521768e+000 8.146114708182e+000 0.000000000000e+000
          2.411603373059e+000 6.510912162016e+000 0.000000000000e+000
          1.807525763324e+000 6.938080373464e+000 0.000000000000e+000
          1.686779352680e+000 6.178928843543e+000 0.000000000000e+000
          2.510760620997e+000 7.229076682239e+000 0.000000000000e+000
          3.166991983438e+000 6.906135870389e+000 0.000000000000e+000
          3.452788915829e+000 6.276851216781e+000 0.000000000000e+000
          3.340122000742e+000 5.656365440432e+000 0.000000000000e+000
          4.047936562877e+000 5.873561587395e+000 0.000000000000e+000
          1.802463974828e+000 1.292744708026e+001 0.000000000000e+000
          1.383967161336e+000 1.330299552906e+001 0.000000000000e+000
          1.329690820161e+000 1.266495373033e+001 0.000000000000e+000
          2.267922292389e+000 1.431116835808e+001 0.000000000000e+000
          2.854613987538e+000 1.466581611369e+001 0.000000000000e+000
          2.339869278674e+000 1.493776402241e+001 0.000000000000e+000
          4.690956878046e+000 3.115726773737e+000 0.000000000000e+000
          4.014773718330e+000 2.850429494150e+000 0.000000000000e+000
          4.643493383296e+000 2.293565471327e+000 0.000000000000e+000
          5.186083944243e+000 1.661927139510e+000 0.000000000000e+000
          5.452965511439e+000 2.679881546544e+000 0.000000000000e+000
          5.360460104304e+000 3.539902157655e+000 0.000000000000e+000
          6.197986304192e+000 3.115706366113e+000 0.000000000000e+000
          7.929356606585e-001 1.634705420870e+001 0.000000000000e+000
          1.222819867503e+000 1.599517159419e+001 0.000000000000e+000
          1.215723647926e+000 1.546209040954e+001 0.000000000000e+000
          1.770601276021e+000 1.521217632514e+001 0.000000000000e+000
          1.242830150061e+000 1.493919370237e+001 0.000000000000e+000
          1.166444124506e+000 4.610115997312e+000 0.000000000000e+000
          1.851620547934e+000 4.486892013458e+000 0.000000000000e+000
          1.494152702314e+000 5.145235789232e+000 0.000000000000e+000
          1.353088107040e+000 4.090803091641e+000 0.000000000000e+000
          3.802567455935e+000 5.084697985980e+000 0.000000000000e+000
          1.014840185783e+000 5.494768572296e+000 0.000000000000e+000
          8.831064584820e-001 5.109311190608e+000 0.000000000000e+000
          1.727903958959e+000 1.618384478933e+001 0.000000000000e+000
          1.343261525342e+000 1.651800241408e+001 0.000000000000e+000
          3.308120627291e+000 8.593311644828e+000 0.000000000000e+000
[...]
      <PointData Scalars="LIQUID_PRESSURE">
        <DataArray type="Float64" Name="LIQUID_PRESSURE" format="ascii">
          1.001131595537e+006 1.000103243879e+006 1.000392230625e+006 9.998810584637e+005 1.000027896548e+006 1.000225779188e+006 1.000160515160e+006 1.000757367582e+006 1.000799155029e+006 1.000785569221e+006 1.000125589302e+006 1.000838268401e+006 9.998106410241e+005 1.000625732064e+006 1.000012233973e+006 1.000300958684e+006 1.000619230766e+006 9.998841938058e+005 1.000729279761e+006 1.000796463076e+006 1.000636956654e+006 1.000686700028e+006 1.000295778605e+006 1.000680856854e+006 1.000246213314e+006 1.000245834315e+006 1.000240169335e+006 1.000246405478e+006 1.000238948151e+006 1.000245454379e+006 1.000245824570e+006 1.000246246268e+006 1.000240265823e+006 1.000246472240e+006 1.000268010384e+006 1.000259922757e+006 1.000262712919e+006 1.000270616810e+006 1.000273373940e+006 1.000258141289e+006 1.000260014442e+006 1.000268137089e+006 1.000262681878e+006 1.000270268209e+006 1.000234991039e+006 1.000228563071e+006 1.000226316806e+006 1.000235376791e+006 1.000224269408e+006 1.000233701450e+006 1.000228728713e+006 1.000234908934e+006 1.000226782780e+006 1.000235366945e+006 1.000222373605e+006 1.000217338918e+006 1.000216913128e+006 1.000222148454e+006 1.000212105202e+006 1.000281664829e+006 1.000262919392e+006 1.000260681720e+006 1.000281338745e+006 1.000261186677e+006 1.000248623791e+006 1.000258349940e+006 1.000307975451e+006 1.000248964137e+006 1.000259338243e+006 1.000252378223e+006 1.000257060522e+006 1.000259361144e+006 1.000252377604e+006 1.000219843546e+006 1.000215869452e+006 1.000216970554e+006 1.000214165050e+006 1.000228574184e+006 1.000267377829e+006 1.000251925663e+006 1.000253702004e+006 1.000267368928e+006 1.000251944565e+006 1.000527190787e+006 1.000697960138e+006 1.000570929549e+006 1.000072682874e+006 9.999250081018e+005 9.998311049026e+005 1.000344026890e+006 1.000383194457e+006 1.000176478089e+006 1.000261107987e+006 1.000842678825e+006 1.000799911102e+006 1.000266520380e+006 1.000822150402e+006 1.000519658551e+006 1.000633076443e+006 1.000302907382e+006 1.000755016428e+006 1.000715300975e+006 1.000496124575e+006 1.000752998757e+006 1.000583558390e+006 1.000449640308e+006 1.000613481881e+006 9.998372658404e+005 9.998558097885e+005 9.998161990563e+005 1.000600181741e+006 1.000539226562e+006 9.999704097274e+005 9.999148516907e+005 1.000859954590e+006 1.000230007734e+006 1.000836181243e+006 1.000581777635e+006 1.000531881075e+006 1.000617128849e+006 1.000061804061e+006 9.998886227211e+005 9.998469348765e+005 1.000500180659e+006 1.000090779059e+006 9.998155989148e+005 9.998145530847e+005 1.000497810021e+006 9.998208160607e+005 9.998247174238e+005 1.000541305961e+006 1.000093099961e+006 9.998957187628e+005 1.000168960254e+006 9.998433364376e+005 9.999484483382e+005 1.000392160928e+006 9.998735009107e+005 9.998086629910e+005 1.000446702595e+006 9.998117422227e+005 1.000015853652e+006 1.000066771256e+006 9.998612880372e+005 1.000083938643e+006 9.999087616799e+005 9.999541871213e+005 1.000074735094e+006 1.000053856990e+006 1.000169329525e+006 1.000600371190e+006 1.000607379111e+006 1.000626304724e+006 9.998421005571e+005 1.000368312177e+006 1.000832912447e+006 1.000533830834e+006 1.000523445974e+006 1.000055461844e+006 9.998577008307e+005 1.000250587286e+006 1.000059046589e+006 9.999294547917e+005 9.999348765898e+005 9.999836808892e+005 1.000445912244e+006 1.000608349470e+006 1.000593516193e+006 1.000616638081e+006 1.000822914367e+006 1.000213376765e+006 1.000740609963e+006 1.000082870531e+006 9.998410753219e+005 1.000463311422e+006 9.998728565283e+005 1.000363851135e+006 1.000577250613e+006 1.000643038341e+006 9.998089269046e+005 1.000571528639e+006 1.000525020643e+006 1.000070364537e+006 1.000784937658e+006 1.000049267756e+006 1.000212092291e+006 9.998393678593e+005 9.998941718287e+005 1.000476328469e+006 1.000823070434e+006 1.000301318991e+006 1.000664273839e+006 1.000841572701e+006 1.000835165250e+006 9.998871690883e+005 1.000826512147e+006 1.000079052036e+006 1.000664242882e+006 9.999345770578e+005 9.998819529563e+005 1.000612684097e+006 1.000784223770e+006 1.000415086189e+006 9.998242305984e+005 9.998190971086e+005 9.998096966779e+005 1.000274333682e+006 9.998430308848e+005 9.998906065115e+005 9.999536540825e+005 9.998463598622e+005 1.000227567289e+006 1.000808885797e+006 1.000326827972e+006 1.000323525647e+006 1.000557685513e+006 1.000827213686e+006 9.998473182776e+005 1.000258820170e+006 9.998915613919e+005 1.000742305984e+006 1.000132862457e+006 1.000839853248e+006 9.998471956592e+005 1.000171976041e+006 9.998626823406e+005 1.000578352041e+006 1.000730753977e+006 9.999480153933e+005 1.000764316717e+006 9.998155502847e+005 9.998649952568e+005 1.000399152011e+006 9.998994299997e+005 1.000253336829e+006 1.000115584605e+006 1.000558146542e+006 1.000539896018e+006 9.997972268842e+005 1.000891646179e+006 1.000289737449e+006 1.000322310078e+006 1.000314083731e+006 1.000747884134e+006 1.000688311831e+006 1.000721111117e+006 1.000738683598e+006 1.000433786889e+006 1.000528772399e+006 1.000486526772e+006 9.998364862937e+005 1.000268400286e+006 1.000547747196e+006 1.000584968819e+006 1.000584794766e+006 1.000604501024e+006 1.000546373243e+006 1.000597620156e+006 1.000493513772e+006 1.000600772493e+006 1.000580581243e+006 1.000615626970e+006 1.000592649729e+006 1.000215445310e+006 1.000268733160e+006 1.000365790702e+006 1.000342067187e+006 1.000340987744e+006 1.000231626469e+006 1.000252576411e+006 1.000221399313e+006 1.000392404959e+006 1.000346250035e+006 1.000351087741e+006 1.000235317016e+006 1.000255331203e+006 1.000217653044e+006 1.000327329611e+006 1.000431412025e+006 1.000322856084e+006 1.000241643390e+006 1.000218640812e+006 1.000258672453e+006 1.000319402177e+006 1.000430436830e+006 1.000319149906e+006 1.000242906493e+006 1.000286423658e+006 1.000320156715e+006 1.000312493874e+006 1.000297411787e+006 1.000289544195e+006 1.000293523748e+006 1.000320168914e+006 1.000286433441e+006 1.000312483532e+006 1.000297395026e+006 1.000289550060e+006 1.000293514409e+006 1.000235798174e+006 1.000402680695e+006 1.000255743977e+006 1.000300304241e+006 1.000232068693e+006 1.000277999775e+006 1.000402674145e+006 1.000235831181e+006 1.000255721143e+006 1.000300293200e+006 1.000232068498e+006 1.000278000730e+006 1.000394788027e+006 1.000328079001e+006 1.000207473463e+006 1.000250413073e+006 1.000328034179e+006 1.000394705175e+006 1.000207446319e+006 1.000250055634e+006 1.000362282272e+006 1.000214395584e+006 1.000434689121e+006 1.000258769784e+006 1.000401433381e+006 1.000355694187e+006 1.000214325223e+006 1.000362273274e+006 1.000434841632e+006 1.000258791668e+006 1.000401448204e+006 1.000355696179e+006 1.000221301504e+006 1.000206213747e+006 1.000254990780e+006 1.000220413579e+006 1.000206548572e+006 1.000254742240e+006 1.000314505336e+006 1.000367548370e+006 1.000304346460e+006 1.000314503591e+006 1.000367525244e+006 1.000304318806e+006 1.000218098046e+006 1.000218188946e+006 1.000373140773e+006 1.000292805788e+006 1.000231881204e+006 1.000239846955e+006 1.000372499648e+006 1.000240035092e+006 1.000327235002e+006 1.000282223007e+006 1.000292363391e+006 1.000306968661e+006 1.000327231601e+006 1.000306964157e+006 1.000258436450e+006 1.000319536346e+006 1.000259544227e+006 1.000310466983e+006 1.000408552564e+006 1.000408011923e+006 1.000310032948e+006 1.000375678501e+006 1.000209485396e+006 1.000209468356e+006 1.000326882435e+006 1.000249701172e+006 1.000326890432e+006 1.000339275596e+006 1.000317035213e+006 1.000339266005e+006 1.000326583889e+006 1.000326601826e+006 1.000285094011e+006 1.000339975235e+006 1.000339964610e+006 1.000326886731e+006 1.000258861906e+006 1.000326970600e+006 1.000282110265e+006 1.000260514246e+006 1.000274260149e+006 1.000256962230e+006 1.000288612654e+006 1.000228985611e+006 1.000287555615e+006 1.000225351677e+006 1.000031449491e+006 1.000049933072e+006 1.000355501415e+006 1.000454364451e+006 1.000162892326e+006 1.000475390494e+006 1.000850875048e+006 1.000271820123e+006 1.000783285779e+006 1.000546901658e+006 1.000212064698e+006 1.000359937078e+006 1.000433887040e+006 9.999956089549e+005 1.000372628892e+006 9.998100050202e+005 1.001329401773e+006 1.000764287619e+006 1.000129455036e+006 1.000604959109e+006 1.000714067918e+006 1.000302060522e+006 1.000627846106e+006 9.997837129612e+005 1.000410846352e+006 1.000291205880e+006 1.000833135346e+006 1.000472798999e+006 1.000096972462e+006 1.000093181235e+006 1.000334329869e+006 1.000818573737e+006 1.000042531107e+006 1.000761317505e+006 1.000402479192e+006 1.000673244522e+006 9.999857070559e+005 1.000060827529e+006 1.000068216875e+006 1.000570419329e+006 1.000017644172e+006 1.000712755221e+006 1.000356155278e+006 1.000540169110e+006 1.000697742844e+006 1.000475356439e+006 1.000208272448e+006 1.000495515280e+006 1.000163528100e+006 9.998227420195e+005 1.000370643309e+006 1.000740799854e+006 1.000336550263e+006 9.999363461607e+005 9.999207194329e+005 1.000221562234e+006 1.000280185088e+006 1.000287103745e+006 1.000571487057e+006 1.000564477522e+006 1.000730613009e+006 1.000382261072e+006 1.000509604801e+006 9.999502036687e+005 1.000782265254e+006 9.998882705539e+005 1.000365701170e+006 1.000296263394e+006 1.000373485698e+006 1.000416011790e+006 9.998443339846e+005 9.999956070692e+005 1.000723885546e+006 9.998735785089e+005 9.999550490960e+005 1.000502875581e+006 1.000480967045e+006 9.999879675009e+005 1.000018524065e+006 9.999804901102e+005 1.000261076860e+006 9.999872796939e+005 1.000448997184e+006 1.000542098998e+006 1.000487061249e+006 9.999867874915e+005 1.000178399645e+006 1.000655872890e+006 1.000744052574e+006 1.000421698360e+006 1.000079252383e+006 1.000132421413e+006 9.999060126923e+005 9.998194190437e+005 1.000512390082e+006 1.000752677536e+006 9.997774148284e+005 9.998624045534e+005 1.000500371624e+006 1.000848373362e+006 1.000389014030e+006 9.999146265489e+005 1.000570512506e+006 1.000687334460e+006 1.000375624995e+006 1.000016664864e+006 1.000785516329e+006 1.000268110256e+006 1.000345400203e+006 1.000249294604e+006 1.000259499261e+006 9.998528585863e+005 9.999872723141e+005 1.000483834540e+006 1.000792668382e+006 1.000292896594e+006 9.998771719271e+005 1.000149516892e+006 1.000535117433e+006 1.000537620383e+006 1.000789885971e+006 1.000031339382e+006 9.999216934708e+005 1.000740726373e+006 1.000680135444e+006 1.000687893052e+006 1.000348648216e+006 9.998197707324e+005 1.000398044837e+006 1.000808018668e+006 1.000278467247e+006 1.000790513877e+006 1.000794028347e+006 1.000519176922e+006 9.998885368119e+005 1.000754075629e+006 1.000741733321e+006 9.998042086057e+005 9.999940197828e+005 1.000536422949e+006 1.000310038220e+006 1.000041894610e+006 1.000121271317e+006 1.000762594913e+006 1.000306319599e+006 1.000454668120e+006 1.000781732403e+006 1.000008102805e+006 1.000228409876e+006 1.000502892307e+006 1.000087643669e+006 1.000176426686e+006 1.000617308846e+006 9.999984891488e+005 1.000110421036e+006 1.000018948439e+006 1.000797754142e+006 1.000848131680e+006 9.998955783129e+005 9.999549505815e+005 1.000075783062e+006 1.000587824965e+006 1.000282677949e+006 1.000312636301e+006 1.000819362319e+006 1.000577303865e+006 1.000292337095e+006 1.000421278333e+006 1.000757142691e+006 1.000754569423e+006 1.000468760344e+006 1.000413498726e+006 1.000014943409e+006 1.000256813524e+006 9.999734096115e+005 1.000844587484e+006 9.997750302686e+005 1.000586005011e+006 1.000381303976e+006 1.000077864202e+006 9.999250127073e+005 1.000659320594e+006 9.999139252443e+005 9.998087531683e+005 1.000244498971e+006 1.000692909995e+006 1.000242476588e+006 1.000610163295e+006 1.000395021893e+006 1.000224859451e+006 1.000744647590e+006 1.000035786617e+006 9.997791413308e+005 1.000708241652e+006 1.000162793401e+006 1.000768741256e+006 9.999602516423e+005 1.000685723513e+006 1.000305528541e+006 9.998030465933e+005 1.000711345862e+006 1.000082839605e+006 1.000769221117e+006 9.999113272798e+005 1.000326434446e+006 1.000535419970e+006 9.998835208756e+005 9.999021335883e+005 1.000575506163e+006 1.000367009846e+006 1.000439380020e+006 1.000307901474e+006 1.000101880139e+006 1.000402613887e+006 1.000747735154e+006 1.000536597940e+006 9.999822457807e+005 1.000755280749e+006 1.000143972454e+006 9.998370456135e+005 1.000700699470e+006 1.000217330221e+006 1.000336878137e+006 1.000339605961e+006 1.000402053293e+006 1.000737441815e+006 1.000319128441e+006 1.000179313302e+006 1.000609801193e+006 9.998606221603e+005 1.000552649680e+006 1.000083975648e+006 1.000592553302e+006 1.000158253799e+006 1.000505920720e+006 1.000162683340e+006 1.000118045794e+006 9.992102670888e+005 1.000689106752e+006 1.000524401272e+006 9.998258158021e+005 9.999007430722e+005 1.000441482830e+006 9.999229325236e+005 1.000249322506e+006 1.000280102356e+006 1.000346380206e+006 1.000279202895e+006 1.000342975775e+006 9.998582261818e+005 1.000158496357e+006 9.998811239287e+005 9.998369409677e+005 1.000186200558e+006 1.000335217427e+006 1.000398693519e+006 1.000334988241e+006 1.000703829475e+006 1.000251295969e+006 1.000086575020e+006 1.000357821128e+006 1.000133950021e+006 9.998572186243e+005 1.000642532565e+006 1.000797628874e+006 9.998455660875e+005 9.997807620261e+005 1.000800234520e+006 9.997859179235e+005 1.000057574539e+006 1.000599789112e+006 1.000822037718e+006 1.000595233463e+006 1.000571260539e+006 1.000774444608e+006 1.000421954076e+006 1.000628284691e+006 1.000555582605e+006 1.000526347252e+006 1.000023312722e+006 1.000211885280e+006 1.000211913428e+006 1.000596265939e+006 1.000533301880e+006 1.000047445890e+006 1.000538813979e+006 1.000526932369e+006 1.000612106953e+006 1.000737971755e+006 1.000404543486e+006 9.999278645650e+005 1.000205760509e+006 1.000166572671e+006 1.000654344156e+006 1.000766116837e+006 1.000687778017e+006 1.000104852156e+006 1.000513708369e+006 1.000572732532e+006 1.000600494560e+006 1.000436485397e+006 1.000137308285e+006 1.000309020945e+006 1.000399237362e+006 1.000480733979e+006 1.000359959687e+006 1.000306235171e+006 1.000490495086e+006 1.000305986311e+006 1.000264956074e+006 1.000293558170e+006 1.000155636425e+006 1.000255115370e+006 1.000272663027e+006 1.000411690945e+006 1.000206691145e+006 1.000347274722e+006 1.000197155804e+006 1.000389375329e+006 1.000297815553e+006 1.000406387335e+006 1.000408653430e+006 1.000406746075e+006 1.000399716571e+006 1.000269091416e+006 1.000237809709e+006 1.000121339781e+006 1.000237300385e+006 1.000123362294e+006 1.000537938876e+006 1.000276476122e+006 1.000462511259e+006 1.000280850198e+006 1.000470562810e+006 1.000332390950e+006 1.000264592644e+006 1.000346778024e+006 1.000277323929e+006 1.000276092699e+006 1.000331696950e+006 1.000346538712e+006 1.000250609241e+006 1.000347954276e+006 1.000442531417e+006 1.000343556315e+006 1.000467939929e+006 1.000161358254e+006 1.000219691667e+006 1.000155342739e+006 1.000207099588e+006 1.000440257987e+006 1.000358085878e+006 1.000440935978e+006 1.000359538847e+006 1.000324830483e+006 1.000108397052e+006 1.000534890084e+006 1.000485900900e+006 1.000341044420e+006 1.000250861201e+006 1.000110254024e+006 1.000326021924e+006 1.000530343231e+006 1.000486708881e+006 1.000341709409e+006 1.000251390030e+006 1.000228899291e+006 1.000146797702e+006 1.000332919180e+006 1.000231310019e+006 1.000143105851e+006 1.000336997692e+006 1.000561070592e+006 1.000410088799e+006 1.000478771487e+006 1.000560243382e+006 1.000388866648e+006 1.000480016702e+006 1.000012722990e+006 1.000369814475e+006 1.000029225048e+006 1.000013344552e+006 1.000396374388e+006 1.000045459085e+006 1.000638615624e+006 1.000071471084e+006 1.000610537951e+006 1.000058416190e+006 1.000188298603e+006 1.000503154765e+006 1.000188037793e+006 1.000500174973e+006 1.000247297410e+006 1.000348135080e+006 1.000311582432e+006 1.000249243320e+006 1.000347539826e+006 1.000311939833e+006 1.000206135812e+006 1.000408529110e+006 1.000205778907e+006 1.000407749077e+006 1.000428170184e+006 1.000430581832e+006 1.000372424100e+006 1.000371378533e+006 1.000099352907e+006 1.000092762230e+006 1.000074047310e+006 1.000543184903e+006 1.000022114402e+006 1.000360402851e+006 1.000527166965e+006 1.000501118676e+006 1.000093916763e+006 1.000102309972e+006 1.000112420342e+006 1.000514307063e+006 1.000189321034e+006 1.000516493547e+006 1.000188109764e+006 1.000350942082e+006 1.000066821567e+006 1.000337119523e+006 1.000060912635e+006 1.000046598158e+006 1.000580632777e+006 1.000144938516e+006 9.998619743292e+005 1.000695006600e+006 1.000646869761e+006 1.000550068589e+006 1.000490312009e+006 1.000389588884e+006 1.000535086501e+006 1.000514711325e+006 1.000474734689e+006 1.000094377804e+006 1.000292619081e+006 1.000007471177e+006 1.000359015261e+006 1.000150947112e+006 1.000019929952e+006 1.000158067926e+006 1.000086567945e+006 1.000160496937e+006 1.000671368401e+006 1.000694723019e+006 1.000160417941e+006 1.000541156925e+006 1.000149751488e+006 1.000350708093e+006 1.000557555374e+006 1.000000000000e+006 1.000000000000e+006 1.000180033671e+006 1.000589985177e+006 1.000771646734e+006 1.000078543905e+006 1.000625359734e+006 1.000627296555e+006 9.999095169453e+005 1.000742687681e+006 1.000281674372e+006 1.000688938853e+006 1.000065661156e+006 1.000020893537e+006 1.000011376600e+006 9.998700742808e+005 1.000201896461e+006 1.000076639741e+006 1.000644767435e+006 1.000771734615e+006 1.000296123233e+006 1.000050735352e+006 1.000066443771e+006 1.000662156315e+006 1.000617777751e+006 1.000594796315e+006 1.000273019025e+006 1.000271633520e+006 1.000775874164e+006 1.000272293424e+006 1.000272466939e+006 1.000123820698e+006 1.000234096965e+006 1.000633431397e+006 1.000106823849e+006 9.999906610938e+005 9.998630764567e+005 1.000168846793e+006 1.000417723985e+006 1.000094396562e+006 1.000307635647e+006 1.000014774655e+006 1.000110247743e+006 1.000299365532e+006 1.000723608840e+006 1.000520083577e+006 1.000321980891e+006 1.000693704219e+006 1.000364385993e+006 1.000697512499e+006 1.000430517759e+006 1.000330395886e+006 1.000367536409e+006 1.000717810678e+006 1.000594003898e+006 9.998648346422e+005 1.000173617734e+006 1.000757309326e+006 1.000304946804e+006 1.000304613591e+006 1.000791624801e+006 1.000516456244e+006 1.000338708147e+006 1.000104030190e+006 1.000724206226e+006 1.000619814883e+006 9.999029872889e+005 1.000234851586e+006 1.000289843158e+006 1.000511185474e+006 1.000152446462e+006 1.000091630614e+006 1.000718185422e+006 1.000534459899e+006 1.000711730200e+006 1.000743854095e+006 1.000511826407e+006 9.998610806233e+005 9.999920054503e+005 1.000238143804e+006 1.000637880799e+006 1.000420011551e+006 1.000142215547e+006 9.998535644684e+005 1.000315578364e+006 1.000057646415e+006 1.000570097065e+006 1.000827717085e+006 1.000609820095e+006 1.000614020568e+006 1.000653652197e+006 1.000624700448e+006 1.000634656043e+006 1.000733531500e+006 1.000653156105e+006 1.000099295994e+006 1.000250873538e+006 1.000669583027e+006 1.000209577775e+006 1.000578142897e+006 1.000216751560e+006 9.984893346152e+005 1.000000570503e+006 1.000598560420e+006 1.000589759842e+006 1.000739389574e+006 1.000165763950e+006 1.000147735332e+006 1.000196463056e+006 1.000277232584e+006 1.000277022997e+006 1.000346747492e+006 1.000343272519e+006 1.000703532365e+006 1.000601718672e+006 1.000158106397e+006 1.000163922405e+006 1.000178050222e+006 1.000190055459e+006 1.000587360463e+006 1.000573311401e+006 
        </DataArray>
        <DataArray type="Float64" Name="MEAN_PRESSURE" format="ascii">