<?xml version="1.0"?>
<VTKFile type="UnstructuredGrid" version="0.1" byte_order="LittleEndian">
  <UnstructuredGrid>
    <Piece NumberOfPoints="963" NumberOfCells="1758">
      <Points>
        <DataArray type="Float64" NumberOfComponents="3" format="ascii">
          1.600262034769e+002 1.257989505921e+001 0.000000000000e+000
          1.635346199106e+002 2.000000000000e+001 0.000000000000e+000
          1.554515002484e+002 2.000000000000e+001 0.000000000000e+000
          3.459306441575e+000 1.667621982453e+001 0.000000000000e+000
          3.062266634850e+000 1.705413688405e+001 0.000000000000e+000
          2.873380769063e+000 1.650527725632e+001 0.000000000000e+000
          1.514088444034e+000 1.865189448105e+001 0.000000000000e+000
          1.967902677551e+000 1.834103489750e+001 0.000000000000e+000
          2.034564522234e+000 1.890806711991e+001 0.000000000000e+000
          2.478275273162e+000 1.702762299110e+001 0.000000000000e+000
          2.952621433467e+000 1.774357373580e+001 0.000000000000e+000
          2.237893542067e+000 1.782457469610e+001 0.000000000000e+000
          3.313583922780e+000 3.274674552047e+000 0.000000000000e+000
          2.561432712787e+000 3.156040447793e+000 0.000000000000e+000
          3.047531989640e+000 2.714594415171e+000 0.000000000000e+000
          2.750804692284e+000 3.936058190693e+000 0.000000000000e+000
          2.599039179818e+000 2.451529939148e+000 0.000000000000e+000
          3.139686649742e+000 2.186924052088e+000 0.000000000000e+000
          1.919984553221e+000 3.358010194268e+000 0.000000000000e+000
          1.960900304591e+000 2.773319745251e+000 0.000000000000e+000
          1.894565400391e+000 1.733316857565e+001 0.000000000000e+000
          0.000000000000e+000 1.538461538461e+001 0.000000000000e+000
          5.816229249735e-001 1.567919247147e+001 0.000000000000e+000
          0.000000000000e+000 1.589743589743e+001 0.000000000000e+000
          9.766405669483e+001 2.000000000000e+001 0.000000000000e+000
          1.010672711393e+002 1.500000000000e+001 0.000000000000e+000
          1.029329279907e+002 2.000000000000e+001 0.000000000000e+000
          9.588503785413e+001 1.500000000000e+001 0.000000000000e+000
          1.039231647117e+002 1.000000000000e+001 0.000000000000e+000
          9.860830811271e+001 1.000000000000e+001 0.000000000000e+000
          1.010672711397e+002 5.000000000000e+000 0.000000000000e+000
          9.766405669557e+001 0.000000000000e+000 0.000000000000e+000
          1.029329279915e+002 0.000000000000e+000 0.000000000000e+000
          9.588503785449e+001 5.000000000000e+000 0.000000000000e+000
          7.892434178002e+001 2.000000000000e+001 0.000000000000e+000
          8.173808356948e+001 1.500000000000e+001 0.000000000000e+000
          8.328058896910e+001 2.000000000000e+001 0.000000000000e+000
          7.679274808893e+001 1.514423393202e+001 0.000000000000e+000
          7.970503892166e+001 1.000000000000e+001 0.000000000000e+000
          8.409930620613e+001 1.000000000000e+001 0.000000000000e+000
          8.173808356980e+001 5.000000000000e+000 0.000000000000e+000
          7.892434178065e+001 0.000000000000e+000 0.000000000000e+000
          8.328058896976e+001 0.000000000000e+000 0.000000000000e+000
          7.679274808925e+001 4.855766067979e+000 0.000000000000e+000
          1.084583939765e+002 2.000000000000e+001 0.000000000000e+000
          1.122011528880e+002 1.500000000000e+001 0.000000000000e+000
          1.142529496098e+002 2.000000000000e+001 0.000000000000e+000
          1.065018792644e+002 1.500000000000e+001 0.000000000000e+000
          1.153419838410e+002 1.000000000000e+001 0.000000000000e+000
          1.094968549120e+002 1.000000000000e+001 0.000000000000e+000
          1.122011528884e+002 5.000000000000e+000 0.000000000000e+000
          1.084583939773e+002 0.000000000000e+000 0.000000000000e+000
          1.142529496106e+002 0.000000000000e+000 0.000000000000e+000
          1.065018792648e+002 5.000000000000e+000 0.000000000000e+000
          1.181779812237e+002 1.500000000000e+001 0.000000000000e+000
          1.203297004775e+002 2.000000000000e+001 0.000000000000e+000
          1.214717707847e+002 1.000000000000e+001 0.000000000000e+000
          1.181779812242e+002 5.000000000000e+000 0.000000000000e+000
          1.203297004784e+002 0.000000000000e+000 0.000000000000e+000
          7.477039199538e+001 2.000000000000e+001 0.000000000000e+000
          7.551483469771e+001 1.000000000000e+001 0.000000000000e+000
          7.296959467356e+001 1.385646386579e+001 0.000000000000e+000
          7.477039199599e+001 0.000000000000e+000 0.000000000000e+000
          7.296959467379e+001 6.143536134207e+000 0.000000000000e+000
          6.918477198508e+001 1.366665532880e+001 0.000000000000e+000
          6.746477463053e+001 1.000000000000e+001 0.000000000000e+000
          7.151921701478e+001 1.000000000000e+001 0.000000000000e+000
          6.918477198529e+001 6.333344671202e+000 0.000000000000e+000
          9.263986346551e+001 2.000000000000e+001 0.000000000000e+000
          9.094345943471e+001 1.500000000000e+001 0.000000000000e+000
          9.354026529380e+001 1.000000000000e+001 0.000000000000e+000
          9.263986346623e+001 0.000000000000e+000 0.000000000000e+000
          9.094345943506e+001 5.000000000000e+000 0.000000000000e+000
          1.244344522558e+002 1.503312574389e+001 0.000000000000e+000
          1.267023895482e+002 2.000000000000e+001 0.000000000000e+000
          1.285510028831e+002 1.020485663255e+001 0.000000000000e+000
          1.244344522563e+002 5.033125743893e+000 0.000000000000e+000
          1.267023895491e+002 0.000000000000e+000 0.000000000000e+000
          8.623136018348e+001 1.500000000000e+001 0.000000000000e+000
          8.784898578901e+001 2.000000000000e+001 0.000000000000e+000
          8.870757443665e+001 1.000000000000e+001 0.000000000000e+000
          8.623136018382e+001 5.000000000000e+000 0.000000000000e+000
          8.784898578969e+001 0.000000000000e+000 0.000000000000e+000
          4.872472752737e+000 0.000000000000e+000 0.000000000000e+000
          4.204479229380e+000 6.412840757122e-001 0.000000000000e+000
          4.157376851380e+000 0.000000000000e+000 0.000000000000e+000
          5.192892237051e+000 7.280355562789e-001 0.000000000000e+000
          1.306630304579e+000 6.212843344151e-001 0.000000000000e+000
          1.050228457081e+000 0.000000000000e+000 0.000000000000e+000
          1.614006202528e+000 0.000000000000e+000 0.000000000000e+000
          1.266763055794e+001 1.554696422866e+001 0.000000000000e+000
          1.263589100638e+001 1.657720348306e+001 0.000000000000e+000
          1.174268578662e+001 1.633018318031e+001 0.000000000000e+000
          6.588835695415e+000 7.505681085529e+000 0.000000000000e+000
          6.456871838389e+000 6.658671683861e+000 0.000000000000e+000
          7.208099140752e+000 7.038822846307e+000 0.000000000000e+000
          4.412623338166e+000 9.138856431549e+000 0.000000000000e+000
          4.024185797397e+000 8.708923235630e+000 0.000000000000e+000
          4.601447447338e+000 8.507292699647e+000 0.000000000000e+000
          5.325995059827e-001 6.308307298123e+000 0.000000000000e+000
          0.000000000000e+000 6.666666666655e+000 0.000000000000e+000
          0.000000000000e+000 6.153846153835e+000 0.000000000000e+000
          3.986461521768e+000 8.146114708182e+000 0.000000000000e+000
          2.411603373059e+000 6.510912162016e+000 0.000000000000e+000
          1.807525763324e+000 6.938080373464e+000 0.000000000000e+000
          1.686779352680e+000 6.178928843543e+000 0.000000000000e+000
          2.510760620997e+000 7.229076682239e+000 0.000000000000e+000
          3.166991983438e+000 6.906135870389e+000 0.000000000000e+000
          3.452788915829e+000 6.276851216781e+000 0.000000000000e+000
          3.340122000742e+000 5.656365440432e+000 0.000000000000e+000
          4.047936562877e+000 5.873561587395e+000 0.000000000000e+000
          1.802463974828e+000 1.292744708026e+001 0.000000000000e+000
          1.383967161336e+000 1.330299552906e+001 0.000000000000e+000
          1.329690820161e+000 1.266495373033e+001 0.000000000000e+000
          2.267922292389e+000 1.431116835808e+001 0.000000000000e+000
          2.854613987538e+000 1.466581611369e+001 0.000000000000e+000
          2.339869278674e+000 1.493776402241e+001 0.000000000000e+000
          4.690956878046e+000 3.115726773737e+000 0.000000000000e+000
          4.014773718330e+000 2.850429494150e+000 0.000000000000e+000
          4.643493383296e+000 2.293565471327e+000 0.000000000000e+000
          5.186083944243e+000 1.661927139510e+000 0.000000000000e+000
          5.452965511439e+000 2.679881546544e+000 0.000000000000e+000
          5.360460104304e+000 3.539902157655e+000 0.000000000000e+000
          6.197986304192e+000 3.115706366113e+000 0.000000000000e+000
          7.929356606585e-001 1.634705420870e+001 0.000000000000e+000
          1.222819867503e+000 1.599517159419e+001 0.000000000000e+000
          1.215723647926e+000 1.546209040954e+001 0.000000000000e+000
          1.770601276021e+000 1.521217632514e+001 0.000000000000e+000
          1.242830150061e+000 1.493919370237e+001 0.000000000000e+000
          1.166444124506e+000 4.610115997312e+000 0.000000000000e+000
          1.851620547934e+000 4.486892013458e+000 0.000000000000e+000
          1.494152702314e+000 5.145235789232e+000 0.000000000000e+000
          1.353088107040e+000 4.090803091641e+000 0.000000000000e+000
          3.802567455935e+000 5.084697985980e+000 0.000000000000e+000
          1.014840185783e+000 5.494768572296e+000 0.000000000000e+000
          8.831064584820e-001 5.109311190608e+000 0.000000000000e+000
          1.727903958959e+000 1.618384478933e+001 0.000000000000e+000
          1.343261525342e+000 1.651800241408e+001 0.000000000000e+000
          3.308120627291e+000 8.593311644828e+000 0.000000000000e+000
[...]
      <PointData Scalars="LIQUID_PRESSURE">
        <DataArray type="Float64" Name="LIQUID_PRESSURE" format="ascii">
          9.999118071778e+005 1.001459415980e+006 9.999539822412e+005 1.000017732748e+006 1.000176311888e+006 1.000385631378e+006 1.000323247978e+006 1.000964523209e+006 1.001014632499e+006 1.000989411791e+006 1.000277159257e+006 1.001054033507e+006 9.999412941787e+005 1.000823309500e+006 1.000155328087e+006 1.000474997961e+006 1.000810709236e+006 1.000021169453e+006 1.000935091350e+006 1.001010006753e+006 1.000835909361e+006 1.000885288139e+006 1.000443735844e+006 1.000876794527e+006 1.000369296266e+006 1.000370488072e+006 1.000358938762e+006 1.000366326552e+006 1.000356654156e+006 1.000368632742e+006 1.000370209707e+006 1.000369109755e+006 1.000359171116e+006 1.000366384898e+006 1.000412400698e+006 1.000392666316e+006 1.000398158397e+006 1.000412054272e+006 1.000421882591e+006 1.000387493646e+006 1.000392796593e+006 1.000412417619e+006 1.000398171659e+006 1.000411483444e+006 1.000354912022e+006 1.000343513117e+006 1.000338389446e+006 1.000350520058e+006 1.000333724259e+006 1.000353233917e+006 1.000343262354e+006 1.000354163223e+006 1.000336780986e+006 1.000350620015e+006 1.000338003593e+006 1.000322674910e+006 1.000326988021e+006 1.000334343039e+006 1.000321497751e+006 1.000426414008e+006 1.000398063613e+006 1.000400483232e+006 1.000426410889e+006 1.000401614797e+006 1.000371335983e+006 1.000399509847e+006 1.000474491006e+006 1.000371371696e+006 1.000398904648e+006 1.000378923647e+006 1.000392986931e+006 1.000398902599e+006 1.000378887519e+006 1.000327414400e+006 1.000339781509e+006 1.000313698521e+006 1.000332765753e+006 1.000335784512e+006 1.000413221266e+006 1.000374744017e+006 1.000380797946e+006 1.000413206375e+006 1.000374731026e+006 1.000687313358e+006 1.000897458879e+006 1.000765623753e+006 1.000212947129e+006 1.000067786823e+006 9.999649612062e+005 1.000523115373e+006 1.000548686585e+006 1.000333102456e+006 1.000420536592e+006 1.001040800217e+006 1.000999383661e+006 1.000426636045e+006 1.001007836183e+006 1.000699377824e+006 1.000815497107e+006 1.000449816454e+006 1.000937013942e+006 1.000895535040e+006 1.000669930222e+006 1.000957931441e+006 1.000778414741e+006 1.000636273954e+006 1.000802246956e+006 9.999708059478e+005 9.999994904087e+005 9.999482462707e+005 1.000785242913e+006 1.000729467149e+006 1.000117940369e+006 1.000061499357e+006 1.001074215808e+006 1.000387704366e+006 1.001041548828e+006 1.000755392837e+006 1.000706174513e+006 1.000795708887e+006 1.000201711436e+006 1.000018304243e+006 9.999772144125e+005 1.000681675486e+006 1.000223579622e+006 9.999482101003e+005 9.999480481008e+005 1.000685877307e+006 9.999572043896e+005 9.999568037087e+005 1.000741533489e+006 1.000253842602e+006 1.000039654374e+006 1.000332879314e+006 9.999749778374e+005 1.000076793101e+006 1.000571796292e+006 1.000013675858e+006 9.999453352777e+005 1.000621658936e+006 9.999530183457e+005 1.000148824756e+006 1.000199140472e+006 1.000002443147e+006 1.000219171133e+006 1.000039800831e+006 1.000107386339e+006 1.000223382295e+006 1.000186458168e+006 1.000324515977e+006 1.000796322260e+006 1.000773629232e+006 1.000833756976e+006 9.999804275696e+005 1.000546835306e+006 1.001053314931e+006 1.000712616370e+006 1.000683082588e+006 1.000204799769e+006 9.999986860629e+005 1.000417907531e+006 1.000218681533e+006 1.000078848475e+006 1.000066662736e+006 1.000108680152e+006 1.000626918495e+006 1.000811282875e+006 1.000761328656e+006 1.000820651557e+006 1.001033087839e+006 1.000381349601e+006 1.000938917779e+006 1.000240606271e+006 9.999729918999e+005 1.000642600630e+006 1.000021088540e+006 1.000529190999e+006 1.000738609833e+006 1.000837375121e+006 9.999354768629e+005 1.000772106432e+006 1.000718276444e+006 1.000218687932e+006 1.000989598899e+006 1.000180806332e+006 1.000346657491e+006 9.999816564263e+005 1.000041009029e+006 1.000662421851e+006 1.001034313440e+006 1.000468827349e+006 1.000851797448e+006 1.001053281733e+006 1.001042794521e+006 1.000011651978e+006 1.001033613545e+006 1.000237992575e+006 1.000861037729e+006 1.000074693906e+006 1.000024491606e+006 1.000803163690e+006 1.000997889640e+006 1.000600144669e+006 9.999624465921e+005 9.999495005585e+005 9.999528324482e+005 1.000444294529e+006 9.999812743864e+005 1.000030946109e+006 1.000102874153e+006 9.999748871580e+005 1.000399117119e+006 1.001020357179e+006 1.000512347375e+006 1.000507984707e+006 1.000739127493e+006 1.001036638231e+006 9.999698391361e+005 1.000433061694e+006 1.000033786930e+006 1.000938496889e+006 1.000290802606e+006 1.001033962700e+006 9.999789269584e+005 1.000335464843e+006 9.999964019615e+005 1.000772604514e+006 1.000927591167e+006 1.000082219852e+006 1.000971961866e+006 9.999493281695e+005 1.000001363386e+006 1.000570994295e+006 1.000046240377e+006 1.000392535913e+006 1.000264851172e+006 1.000753680942e+006 1.000735853360e+006 9.999259721853e+005 1.001111772313e+006 1.000464622295e+006 1.000461685070e+006 1.000461831157e+006 1.000932975202e+006 1.000881145825e+006 1.000914399158e+006 1.000930693592e+006 1.000584022159e+006 1.000718234931e+006 1.000637359164e+006 9.999646678777e+005 1.000401749221e+006 1.000746381463e+006 1.000759694574e+006 1.000788182742e+006 1.000808311617e+006 1.000701255229e+006 1.000802282370e+006 1.000641732818e+006 1.000801453227e+006 1.000745954509e+006 1.000825314248e+006 1.000799275348e+006 1.000345675571e+006 1.000414443943e+006 1.000546255912e+006 1.000515949372e+006 1.000517997130e+006 1.000363361437e+006 1.000390884713e+006 1.000356703523e+006 1.000579351226e+006 1.000521938905e+006 1.000531901773e+006 1.000368929293e+006 1.000406405838e+006 1.000343891956e+006 1.000485965103e+006 1.000639327775e+006 1.000489269638e+006 1.000375166553e+006 1.000344473090e+006 1.000410781768e+006 1.000474726626e+006 1.000638524389e+006 1.000484305874e+006 1.000376890768e+006 1.000441381923e+006 1.000485520141e+006 1.000467302880e+006 1.000463173809e+006 1.000442385492e+006 1.000450884641e+006 1.000485528982e+006 1.000441381490e+006 1.000467289238e+006 1.000463146757e+006 1.000442389989e+006 1.000450871604e+006 1.000376346280e+006 1.000592671233e+006 1.000405802971e+006 1.000465090501e+006 1.000370194714e+006 1.000430257134e+006 1.000592665714e+006 1.000376392815e+006 1.000405776650e+006 1.000465077469e+006 1.000370197027e+006 1.000430258469e+006 1.000568830108e+006 1.000489973380e+006 1.000349725843e+006 1.000402202321e+006 1.000489927463e+006 1.000568764216e+006 1.000349674950e+006 1.000401823882e+006 1.000546889132e+006 1.000349803135e+006 1.000637734282e+006 1.000397100318e+006 1.000590940356e+006 1.000534600973e+006 1.000349734348e+006 1.000546882120e+006 1.000637888681e+006 1.000397126994e+006 1.000590953068e+006 1.000534601117e+006 1.000352437167e+006 1.000324385500e+006 1.000404865586e+006 1.000351371638e+006 1.000324664815e+006 1.000404522380e+006 1.000477745464e+006 1.000544535630e+006 1.000462113168e+006 1.000477724269e+006 1.000544541027e+006 1.000462111117e+006 1.000353076041e+006 1.000353254163e+006 1.000550876364e+006 1.000457032976e+006 1.000362983848e+006 1.000380629152e+006 1.000550161945e+006 1.000380806784e+006 1.000498138807e+006 1.000432125021e+006 1.000448462054e+006 1.000471511091e+006 1.000498133499e+006 1.000471502523e+006 1.000401083942e+006 1.000489342139e+006 1.000402566039e+006 1.000476770493e+006 1.000589137897e+006 1.000588730667e+006 1.000476545573e+006 1.000548292842e+006 1.000343518474e+006 1.000343511696e+006 1.000492697848e+006 1.000396346399e+006 1.000492708952e+006 1.000509894920e+006 1.000480984862e+006 1.000509881068e+006 1.000488247901e+006 1.000488223052e+006 1.000437825457e+006 1.000515516265e+006 1.000515512897e+006 1.000503577384e+006 1.000394086891e+006 1.000503183703e+006 1.000437620737e+006 1.000394090855e+006 1.000414644772e+006 1.000389491219e+006 1.000447927456e+006 1.000343848936e+006 1.000444527203e+006 1.000338386057e+006 1.000177144732e+006 1.000204835487e+006 1.000517618992e+006 1.000629192866e+006 1.000328287651e+006 1.000655579174e+006 1.001060181331e+006 1.000433792839e+006 1.001001813602e+006 1.000714223763e+006 1.000364580131e+006 1.000537201780e+006 1.000582599845e+006 1.000145592550e+006 1.000279668750e+006 9.999657039190e+005 1.001283140770e+006 1.000946791249e+006 1.000290061621e+006 1.000786314828e+006 1.000904630982e+006 1.000471396206e+006 1.000824162120e+006 9.999169124180e+005 1.000587055187e+006 1.000462840741e+006 1.001047744911e+006 1.000658339315e+006 1.000242930073e+006 1.000249339279e+006 1.000502993475e+006 1.001029524821e+006 1.000190041833e+006 1.000948104269e+006 1.000548889246e+006 1.000864667592e+006 1.000149674760e+006 1.000205775331e+006 1.000216010296e+006 1.000749435929e+006 1.000171405714e+006 1.000903886674e+006 1.000535755066e+006 1.000713730839e+006 1.000891879893e+006 1.000654306166e+006 1.000346007454e+006 1.000680400845e+006 1.000330162438e+006 9.999638134293e+005 1.000551034268e+006 1.000934077691e+006 1.000490973762e+006 1.000072038725e+006 1.000064918872e+006 1.000386156378e+006 1.000446133145e+006 1.000446331740e+006 1.000743767654e+006 1.000741263466e+006 1.000920901246e+006 1.000559845473e+006 1.000696122625e+006 1.000102932133e+006 1.000972646296e+006 1.000024005199e+006 1.000535829642e+006 1.000454952974e+006 1.000541657275e+006 1.000594024030e+006 9.999808249110e+005 1.000143117182e+006 1.000913684041e+006 1.000014226092e+006 1.000091951137e+006 1.000678100848e+006 1.000666706133e+006 1.000127236853e+006 1.000171193198e+006 1.000132962738e+006 1.000429693675e+006 1.000131079218e+006 1.000624406452e+006 1.000716873235e+006 1.000671204628e+006 1.000137175931e+006 1.000334980356e+006 1.000845402372e+006 1.000943380753e+006 1.000602162779e+006 1.000232796692e+006 1.000289570287e+006 1.000045017552e+006 9.999549854786e+005 1.000682659861e+006 1.000943778051e+006 9.999061316596e+005 9.999917604939e+005 1.000681436229e+006 1.001059303254e+006 1.000558893446e+006 1.000047972310e+006 1.000752575167e+006 1.000879613584e+006 1.000543988799e+006 1.000160960698e+006 1.000972517615e+006 1.000425528159e+006 1.000514890774e+006 1.000424149346e+006 1.000434307875e+006 9.999780381739e+005 1.000134350058e+006 1.000650242430e+006 1.000987414204e+006 1.000450434581e+006 1.000010566664e+006 1.000307133225e+006 1.000706914677e+006 1.000711670773e+006 1.000991176740e+006 1.000184294381e+006 1.000051691003e+006 1.000909529327e+006 1.000866562839e+006 1.000871950259e+006 1.000522608750e+006 9.999504153168e+005 1.000543142799e+006 1.000992267939e+006 1.000433643104e+006 1.000980224296e+006 1.000985839511e+006 1.000698484704e+006 1.000029258055e+006 1.000945393323e+006 1.000948550461e+006 9.999398889872e+005 1.000134753650e+006 1.000719815075e+006 1.000468578357e+006 1.000194129089e+006 1.000275565168e+006 1.000956132337e+006 1.000461261048e+006 1.000637358886e+006 1.000986083415e+006 1.000164486942e+006 1.000388998104e+006 1.000684401812e+006 1.000245154628e+006 1.000332822711e+006 1.000800268041e+006 1.000143201950e+006 1.000261094589e+006 1.000163921250e+006 1.000996132330e+006 1.001065108209e+006 1.000026343743e+006 1.000097029867e+006 1.000220624560e+006 1.000769171148e+006 1.000447186388e+006 1.000480135236e+006 1.001032260881e+006 1.000776764764e+006 1.000460963209e+006 1.000592062834e+006 1.000934543544e+006 1.000950059560e+006 1.000646841150e+006 1.000585166400e+006 1.000173014069e+006 1.000408908820e+006 1.000113293925e+006 1.001059371583e+006 9.999027968549e+005 1.000750743189e+006 1.000556050284e+006 1.000232315090e+006 1.000069587164e+006 1.000836111502e+006 1.000043084577e+006 9.999355894827e+005 1.000382106356e+006 1.000880294015e+006 1.000405524275e+006 1.000786574182e+006 1.000563820686e+006 1.000381638617e+006 1.000934427844e+006 1.000187825736e+006 9.998991454010e+005 1.000908498459e+006 1.000319851286e+006 1.000972819258e+006 1.000109869786e+006 1.000871380438e+006 1.000461182935e+006 9.999360295935e+005 1.000886156001e+006 1.000252944038e+006 1.000955675276e+006 1.000051449998e+006 1.000473863511e+006 1.000692335708e+006 1.000023443281e+006 1.000046126857e+006 1.000754382519e+006 1.001056500283e+006 1.000947915970e+006 1.000731334563e+006 1.000267344817e+006 1.000548613052e+006 1.000949887596e+006 1.000724657703e+006 1.000127099708e+006 1.000939143185e+006 1.000304888572e+006 9.999765759758e+005 1.000873709670e+006 1.000366831354e+006 1.000520025962e+006 1.000524570408e+006 1.000547914051e+006 1.000928095577e+006 1.000496398525e+006 1.000334939245e+006 1.000786053808e+006 9.999943220984e+005 1.000737009451e+006 1.000213930726e+006 1.000778780877e+006 1.000318365125e+006 1.000668915619e+006 1.000327601161e+006 1.000272003378e+006 1.000381016494e+006 1.000946894424e+006 1.000708470932e+006 9.999631459217e+005 1.000046704042e+006 1.000609891209e+006 1.000074550133e+006 1.000392854185e+006 1.000451546123e+006 1.000518192892e+006 1.000449679183e+006 1.000513999856e+006 9.999960150302e+005 1.000293189054e+006 1.000021403160e+006 9.999621832292e+005 1.000328242602e+006 1.000501610779e+006 1.000575956000e+006 1.000501339333e+006 1.000882105906e+006 1.000410561421e+006 1.000247509286e+006 1.000527221361e+006 1.000291576365e+006 9.999906736004e+005 1.000835833109e+006 1.000991757336e+006 9.999789959087e+005 9.999061849251e+005 1.001013066799e+006 9.999257368891e+005 1.000210463159e+006 1.000781360441e+006 1.001417434704e+006 1.001057816718e+006 1.000728215192e+006 1.000990396488e+006 1.000607743142e+006 1.000821854413e+006 1.000742264467e+006 1.000680489236e+006 1.000166430214e+006 1.000320390516e+006 1.000319587572e+006 1.000780051757e+006 1.000712539803e+006 1.000191083688e+006 1.000730197523e+006 1.000714657175e+006 1.000798026909e+006 1.000928655943e+006 1.000575773665e+006 1.000063120213e+006 1.000444570359e+006 1.000375053993e+006 1.000833049966e+006 1.000954378717e+006 1.000883234675e+006 1.000262016473e+006 1.000714760577e+006 1.000734464970e+006 1.000803362538e+006 1.000604450871e+006 1.000283583615e+006 1.000469930055e+006 1.000550346769e+006 1.000665111857e+006 1.000530208793e+006 1.000464809734e+006 1.000677349145e+006 1.000472204344e+006 1.000432644773e+006 1.000455351384e+006 1.000306724948e+006 1.000416148784e+006 1.000439069377e+006 1.000577575239e+006 1.000358200748e+006 1.000516824212e+006 1.000350597426e+006 1.000562956744e+006 1.000454783026e+006 1.000572564461e+006 1.000580221477e+006 1.000572983073e+006 1.000571476546e+006 1.000433804602e+006 1.000395710533e+006 1.000270757865e+006 1.000395967244e+006 1.000273200780e+006 1.000724650052e+006 1.000443097595e+006 1.000634881147e+006 1.000448555003e+006 1.000643626009e+006 1.000494754190e+006 1.000419291770e+006 1.000503038167e+006 1.000433861550e+006 1.000429888130e+006 1.000494247431e+006 1.000501557676e+006 1.000404989805e+006 1.000516806504e+006 1.000622955925e+006 1.000513877602e+006 1.000650485441e+006 1.000314315822e+006 1.000378090359e+006 1.000307721410e+006 1.000365776981e+006 1.000607503750e+006 1.000529300102e+006 1.000607937252e+006 1.000530120182e+006 1.000493476139e+006 1.000257768175e+006 1.000710839287e+006 1.000663429752e+006 1.000507581302e+006 1.000423684970e+006 1.000259863968e+006 1.000494804690e+006 1.000705824349e+006 1.000664299412e+006 1.000508566621e+006 1.000424837605e+006 1.000379559839e+006 1.000304727494e+006 1.000499427779e+006 1.000381185633e+006 1.000299329389e+006 1.000503402839e+006 1.000746153341e+006 1.000579574464e+006 1.000655398647e+006 1.000742996114e+006 1.000557812743e+006 1.000656365570e+006 1.000157665422e+006 1.000534282054e+006 1.000174659837e+006 1.000158455204e+006 1.000567175642e+006 1.000192733397e+006 1.000816138644e+006 1.000212582767e+006 1.000786176695e+006 1.000205872428e+006 1.000341895745e+006 1.000685988919e+006 1.000341899647e+006 1.000681558205e+006 1.000396231804e+006 1.000523617800e+006 1.000479066603e+006 1.000398371317e+006 1.000523149529e+006 1.000479359178e+006 1.000355699842e+006 1.000581153619e+006 1.000355248360e+006 1.000580452704e+006 1.000607572488e+006 1.000610903596e+006 1.000542340949e+006 1.000541355040e+006 1.000240501709e+006 1.000231963772e+006 1.000217191016e+006 1.000720205724e+006 1.000172320419e+006 1.000508261027e+006 1.000699659257e+006 1.000673126062e+006 1.000247078680e+006 1.000257105921e+006 1.000271947993e+006 1.000691964313e+006 1.000342237017e+006 1.000693605582e+006 1.000340462537e+006 1.000519882959e+006 1.000214466385e+006 1.000504076114e+006 1.000207027689e+006 1.000199646307e+006 1.000772163931e+006 1.000303843611e+006 1.000006019272e+006 1.000869430574e+006 1.000835921166e+006 1.000734663905e+006 1.000667588720e+006 1.000561458440e+006 1.000710454365e+006 1.000687123661e+006 1.000645228119e+006 1.000246694739e+006 1.000461480530e+006 1.000143562539e+006 1.000521333830e+006 1.000303621696e+006 1.000169648090e+006 1.000312329427e+006 1.000248369484e+006 1.000304706712e+006 1.000859656027e+006 1.000880987925e+006 1.000315757282e+006 1.000727701061e+006 1.000305311685e+006 1.000496595888e+006 1.000741443632e+006 1.000000000000e+006 1.000000000000e+006 1.000374830759e+006 1.000763549468e+006 1.000971859671e+006 1.000238249673e+006 1.000810402522e+006 1.000815586354e+006 1.000051797426e+006 1.000928020185e+006 1.000440064348e+006 1.000876259592e+006 1.000221118596e+006 1.000168882764e+006 1.000155778185e+006 1.000014607024e+006 1.000353255698e+006 1.000237690820e+006 1.000827025905e+006 1.000960692712e+006 1.000469922614e+006 1.000199496621e+006 1.000219593407e+006 1.000839367047e+006 1.000801795644e+006 1.000772440158e+006 1.000420292063e+006 1.000418261062e+006 1.000975981504e+006 1.000434260870e+006 1.000434487539e+006 1.000293659376e+006 1.000385262825e+006 1.000822565283e+006 1.000259711394e+006 1.000141337486e+006 9.999937401668e+005 1.000332892320e+006 1.000585360224e+006 1.000248324981e+006 1.000476839804e+006 1.000160721478e+006 1.000229168039e+006 1.000056248603e+006 1.000918508027e+006 1.000695303874e+006 1.000360129904e+006 1.000882959025e+006 1.000504921787e+006 1.000891555320e+006 1.000599562739e+006 1.000496039170e+006 1.000730809441e+006 1.000910944529e+006 1.000788696131e+006 1.000010309579e+006 1.000322629905e+006 1.000948782118e+006 1.000469848835e+006 1.000469180547e+006 1.000980062895e+006 1.000669806590e+006 1.000507757664e+006 1.000269602447e+006 1.000904364791e+006 1.000786273355e+006 1.000043430387e+006 1.000394746977e+006 1.000462967193e+006 1.000675965171e+006 1.000309735028e+006 1.000235650553e+006 1.000911665270e+006 1.000703240005e+006 1.000908799937e+006 1.000937598507e+006 1.000689327476e+006 9.999957705446e+005 1.000137859671e+006 1.000304599916e+006 1.000815249088e+006 1.001184346734e+006 1.000300488789e+006 9.999875276704e+005 1.000480214613e+006 1.000204634419e+006 1.000739530814e+006 1.001016013892e+006 1.000788657136e+006 1.000780083960e+006 1.000851226001e+006 1.000818094980e+006 1.000832738911e+006 1.000925793049e+006 1.000836937693e+006 1.000291560524e+006 1.000254385929e+006 1.000065561282e+006 1.000314359864e+006 1.000744388729e+006 1.000273971019e+006 1.000292250532e+006 1.000131923972e+006 1.000758628013e+006 1.000791525501e+006 1.000927427561e+006 1.000252078250e+006 1.000303180694e+006 1.000351838758e+006 1.000433573314e+006 1.000433278211e+006 1.000522743364e+006 1.000518958350e+006 1.000899530531e+006 1.000764180509e+006 1.000302160155e+006 1.000307864331e+006 1.000315158421e+006 1.000328623886e+006 1.000750997428e+006 1.000769348434e+006 
        </DataArray>
        <DataArray type="Float64" Name="MEAN_PRESSURE" format="ascii">