<?xml version="1.0"?>
<VTKFile type="UnstructuredGrid" version="0.1" byte_order="LittleEndian">
  <UnstructuredGrid>
    <Piece NumberOfPoints="963" NumberOfCells="1758">
      <Points>
        <DataArray type="Float64" NumberOfComponents="3" format="ascii">
          1.600262034769e+002 1.257989505921e+001 0.000000000000e+000
          1.635346199106e+002 2.000000000000e+001 0.000000000000e+000
          1.554515002484e+002 2.000000000000e+001 0.000000000000e+000
          3.459306441575e+000 1.667621982453e+001 0.000000000000e+000
          3.062266634850e+000 1.705413688405e+001 0.000000000000e+000
          2.873380769063e+000 1.650527725632e+001 0.000000000000e+000
          1.514088444034e+000 1.865189448105e+001 0.000000000000e+000
          1.967902677551e+000 1.834103489750e+001 0.000000000000e+000
          2.034564522234e+000 1.890806711991e+001 0.000000000000e+000
          2.478275273162e+000 1.702762299110e+001 0.000000000000e+000
          2.952621433467e+000 1.774357373580e+001 0.000000000000e+000
          2.237893542067e+000 1.782457469610e+001 0.000000000000e+000
          3.313583922780e+000 3.274674552047e+000 0.000000000000e+000
          2.561432712787e+000 3.156040447793e+000 0.000000000000e+000
          3.047531989640e+000 2.714594415171e+000 0.000000000000e+000
          2.750804692284e+000 3.936058190693e+000 0.000000000000e+000
          2.599039179818e+000 2.451529939148e+000 0.000000000000e+000
          3.139686649742e+000 2.186924052088e+000 0.000000000000e+000
          1.919984553221e+000 3.358010194268e+000 0.000000000000e+000
          1.960900304591e+000 2.773319745251e+000 0.000000000000e+000
          1.894565400391e+000 1.733316857565e+001 0.000000000000e+000
          0.000000000000e+000 1.538461538461e+001 0.000000000000e+000
          5.816229249735e-001 1.567919247147e+001 0.000000000000e+000
          0.000000000000e+000 1.589743589743e+001 0.000000000000e+000
          9.766405669483e+001 2.000000000000e+001 0.000000000000e+000
          1.010672711393e+002 1.500000000000e+001 0.000000000000e+000
          1.029329279907e+002 2.000000000000e+001 0.000000000000e+000
          9.588503785413e+001 1.500000000000e+001 0.000000000000e+000
          1.039231647117e+002 1.000000000000e+001 0.000000000000e+000
          9.860830811271e+001 1.000000000000e+001 0.000000000000e+000
          1.010672711397e+002 5.000000000000e+000 0.000000000000e+000
          9.766405669557e+001 0.000000000000e+000 0.000000000000e+000
          1.029329279915e+002 0.000000000000e+000 0.000000000000e+000
          9.588503785449e+001 5.000000000000e+000 0.000000000000e+000
          7.892434178002e+001 2.000000000000e+001 0.000000000000e+000
          8.173808356948e+001 1.500000000000e+001 0.000000000000e+000
          8.328058896910e+001 2.000000000000e+001 0.000000000000e+000
          7.679274808893e+001 1.514423393202e+001 0.000000000000e+000
          7.970503892166e+001 1.000000000000e+001 0.000000000000e+000
          8.409930620613e+001 1.000000000000e+001 0.000000000000e+000
          8.173808356980e+001 5.000000000000e+000 0.000000000000e+000
          7.892434178065e+001 0.000000000000e+000 0.000000000000e+000
          8.328058896976e+001 0.000000000000e+000 0.000000000000e+000
          7.679274808925e+001 4.855766067979e+000 0.000000000000e+000
          1.084583939765e+002 2.000000000000e+001 0.000000000000e+000
          1.122011528880e+002 1.500000000000e+001 0.000000000000e+000
          1.142529496098e+002 2.000000000000e+001 0.000000000000e+000
          1.065018792644e+002 1.500000000000e+001 0.000000000000e+000
          1.153419838410e+002 1.000000000000e+001 0.000000000000e+000
          1.094968549120e+002 1.000000000000e+001 0.000000000000e+000
          1.122011528884e+002 5.000000000000e+000 0.000000000000e+000
          1.084583939773e+002 0.000000000000e+000 0.000000000000e+000
          1.142529496106e+002 0.000000000000e+000 0.000000000000e+000
          1.065018792648e+002 5.000000000000e+000 0.000000000000e+000
          1.181779812237e+002 1.500000000000e+001 0.000000000000e+000
          1.203297004775e+002 2.000000000000e+001 0.000000000000e+000
          1.214717707847e+002 1.000000000000e+001 0.000000000000e+000
          1.181779812242e+002 5.000000000000e+000 0.000000000000e+000
          1.203297004784e+002 0.000000000000e+000 0.000000000000e+000
          7.477039199538e+001 2.000000000000e+001 0.000000000000e+000
          7.551483469771e+001 1.000000000000e+001 0.000000000000e+000
          7.296959467356e+001 1.385646386579e+001 0.000000000000e+000
          7.477039199599e+001 0.000000000000e+000 0.000000000000e+000
          7.296959467379e+001 6.143536134207e+000 0.000000000000e+000
          6.918477198508e+001 1.366665532880e+001 0.000000000000e+000
          6.746477463053e+001 1.000000000000e+001 0.000000000000e+000
          7.151921701478e+001 1.000000000000e+001 0.000000000000e+000
          6.918477198529e+001 6.333344671202e+000 0.000000000000e+000
          9.263986346551e+001 2.000000000000e+001 0.000000000000e+000
          9.094345943471e+001 1.500000000000e+001 0.000000000000e+000
          9.354026529380e+001 1.000000000000e+001 0.000000000000e+000
          9.263986346623e+001 0.000000000000e+000 0.000000000000e+000
          9.094345943506e+001 5.000000000000e+000 0.000000000000e+000
          1.244344522558e+002 1.503312574389e+001 0.000000000000e+000
          1.267023895482e+002 2.000000000000e+001 0.000000000000e+000
          1.285510028831e+002 1.020485663255e+001 0.000000000000e+000
          1.244344522563e+002 5.033125743893e+000 0.000000000000e+000
          1.267023895491e+002 0.000000000000e+000 0.000000000000e+000
          8.623136018348e+001 1.500000000000e+001 0.000000000000e+000
          8.784898578901e+001 2.000000000000e+001 0.000000000000e+000
          8.870757443665e+001 1.000000000000e+001 0.000000000000e+000
          8.623136018382e+001 5.000000000000e+000 0.000000000000e+000
          8.784898578969e+001 0.000000000000e+000 0.000000000000e+000
          4.872472752737e+000 0.000000000000e+000 0.000000000000e+000
          4.204479229380e+000 6.412840757122e-001 0.000000000000e+000
          4.157376851380e+000 0.000000000000e+000 0.000000000000e+000
          5.192892237051e+000 7.280355562789e-001 0.000000000000e+000
          1.306630304579e+000 6.212843344151e-001 0.000000000000e+000
          1.050228457081e+000 0.000000000000e+000 0.000000000000e+000
          1.614006202528e+000 0.000000000000e+000 0.000000000000e+000
          1.266763055794e+001 1.554696422866e+001 0.000000000000e+000
          1.263589100638e+001 1.657720348306e+001 0.000000000000e+000
          1.174268578662e+001 1.633018318031e+001 0.000000000000e+000
          6.588835695415e+000 7.505681085529e+000 0.000000000000e+000
          6.456871838389e+000 6.658671683861e+000 0.000000000000e+000
          7.208099140752e+000 7.038822846307e+000 0.000000000000e+000
          4.412623338166e+000 9.138856431549e+000 0.000000000000e+000
          4.024185797397e+000 8.708923235630e+000 0.000000000000e+000
          4.601447447338e+000 8.507292699647e+000 0.000000000000e+000
          5.325995059827e-001 6.308307298123e+000 0.000000000000e+000
          0.000000000000e+000 6.666666666655e+000 0.000000000000e+000
          0.000000000000e+000 6.153846153835e+000 0.000000000000e+000
          3.986461521768e+000 8.146114708182e+000 0.000000000000e+000
          2.411603373059e+000 6.510912162016e+000 0.000000000000e+000
          1.807525763324e+000 6.938080373464e+000 0.000000000000e+000
          1.686779352680e+000 6.178928843543e+000 0.000000000000e+000
          2.510760620997e+000 7.229076682239e+000 0.000000000000e+000
          3.166991983438e+000 6.906135870389e+000 0.000000000000e+000
          3.452788915829e+000 6.276851216781e+000 0.000000000000e+000
          3.340122000742e+000 5.656365440432e+000 0.000000000000e+000
          4.047936562877e+000 5.873561587395e+000 0.000000000000e+000
          1.802463974828e+000 1.292744708026e+001 0.000000000000e+000
          1.383967161336e+000 1.330299552906e+001 0.000000000000e+000
          1.329690820161e+000 1.266495373033e+001 0.000000000000e+000
          2.267922292389e+000 1.431116835808e+001 0.000000000000e+000
          2.854613987538e+000 1.466581611369e+001 0.000000000000e+000
          2.339869278674e+000 1.493776402241e+001 0.000000000000e+000
          4.690956878046e+000 3.115726773737e+000 0.000000000000e+000
          4.014773718330e+000 2.850429494150e+000 0.000000000000e+000
          4.643493383296e+000 2.293565471327e+000 0.000000000000e+000
          5.186083944243e+000 1.661927139510e+000 0.000000000000e+000
          5.452965511439e+000 2.679881546544e+000 0.000000000000e+000
          5.360460104304e+000 3.539902157655e+000 0.000000000000e+000
          6.197986304192e+000 3.115706366113e+000 0.000000000000e+000
          7.929356606585e-001 1.634705420870e+001 0.000000000000e+000
          1.222819867503e+000 1.599517159419e+001 0.000000000000e+000
          1.215723647926e+000 1.546209040954e+001 0.000000000000e+000
          1.770601276021e+000 1.521217632514e+001 0.000000000000e+000
          1.242830150061e+000 1.493919370237e+001 0.000000000000e+000
          1.166444124506e+000 4.610115997312e+000 0.000000000000e+000
          1.851620547934e+000 4.486892013458e+000 0.000000000000e+000
          1.494152702314e+000 5.145235789232e+000 0.000000000000e+000
          1.353088107040e+000 4.090803091641e+000 0.000000000000e+000
          3.802567455935e+000 5.084697985980e+000 0.000000000000e+000
          1.014840185783e+000 5.494768572296e+000 0.000000000000e+000
          8.831064584820e-001 5.109311190608e+000 0.000000000000e+000
          1.727903958959e+000 1.618384478933e+001 0.000000000000e+000
          1.343261525342e+000 1.651800241408e+001 0.000000000000e+000
          3.308120627291e+000 8.593311644828e+000 0.000000000000e+000
[...]
      <PointData Scalars="LIQUID_PRESSURE">
        <DataArray type="Float64" Name="LIQUID_PRESSURE" format="ascii">
          1.000890989849e+006 9.998538014232e+005 1.000448288114e+006 9.998266861837e+005 9.999725688392e+005 1.000169532064e+006 1.000104070143e+006 1.000697567122e+006 1.000738731224e+006 1.000725985123e+006 1.000069982415e+006 1.000777837150e+006 9.997566890291e+005 1.000566659669e+006 9.999573134407e+005 1.000243687516e+006 1.000560575636e+006 9.998297721963e+005 1.000669587317e+006 1.000736211690e+006 1.000577794001e+006 1.000627490565e+006 1.000240190918e+006 1.000621832937e+006 1.000205575675e+006 1.000206404802e+006 1.000201913809e+006 1.000205240443e+006 1.000201210076e+006 1.000205146546e+006 1.000206346196e+006 1.000205537472e+006 1.000201993597e+006 1.000205267210e+006 1.000221269879e+006 1.000214395659e+006 1.000217358341e+006 1.000223558862e+006 1.000226563497e+006 1.000213249967e+006 1.000214479300e+006 1.000221396465e+006 1.000217317801e+006 1.000223224640e+006 1.000199984931e+006 1.000195556350e+006 1.000193828893e+006 1.000199285851e+006 1.000192453775e+006 1.000199326808e+006 1.000195380945e+006 1.000199982892e+006 1.000194006135e+006 1.000199396541e+006 1.000191216652e+006 1.000187242502e+006 1.000186751665e+006 1.000192650974e+006 1.000186676457e+006 1.000233938671e+006 1.000215995051e+006 1.000213059864e+006 1.000233599119e+006 1.000213529219e+006 1.000201213653e+006 1.000209753207e+006 1.000258342858e+006 1.000201561562e+006 1.000216235388e+006 1.000209378740e+006 1.000214373344e+006 1.000216231794e+006 1.000209365472e+006 1.000186232026e+006 1.000178342219e+006 1.000179281819e+006 1.000181521817e+006 1.000185650859e+006 1.000222214598e+006 1.000208260007e+006 1.000210072799e+006 1.000222197780e+006 1.000208265523e+006 1.000470696816e+006 1.000638786078e+006 1.000512172130e+006 1.000017821773e+006 9.998700494260e+005 9.997767553709e+005 1.000286369319e+006 1.000326671624e+006 1.000120748478e+006 1.000205030234e+006 1.000783449989e+006 1.000740613500e+006 1.000210238539e+006 1.000763771861e+006 1.000461952021e+006 1.000575045651e+006 1.000247382020e+006 1.000696873442e+006 1.000657335965e+006 1.000438831174e+006 1.000693359992e+006 1.000524716019e+006 1.000391424100e+006 1.000555048296e+006 9.997830858403e+005 9.998009640556e+005 9.997621330237e+005 1.000542038747e+006 1.000480727566e+006 9.999151023373e+005 9.998596259368e+005 1.000799606054e+006 1.000173904162e+006 1.000776474576e+006 1.000524331628e+006 1.000474527162e+006 1.000559367439e+006 1.000006970255e+006 9.998346247724e+005 9.997929296146e+005 1.000442339990e+006 1.000036326296e+006 9.997613859064e+005 9.997602986404e+005 1.000439469347e+006 9.997663579165e+005 9.997705096049e+005 1.000482149930e+006 1.000036853198e+006 9.998407417838e+005 1.000112551642e+006 9.997891294572e+005 9.998943854589e+005 1.000334459901e+006 9.998187700065e+005 9.997543295177e+005 1.000389325928e+006 9.997570651684e+005 9.999614472935e+005 1.000012363647e+006 9.998064570703e+005 1.000029328729e+006 9.998545438612e+005 9.998985379936e+005 1.000019355112e+006 9.999994444116e+005 1.000113441999e+006 1.000541432976e+006 1.000550427003e+006 1.000566462283e+006 9.997874864977e+005 1.000310713701e+006 1.000772178496e+006 1.000476160096e+006 1.000466988815e+006 1.000000013050e+006 9.998030062155e+005 1.000193849479e+006 1.000002885834e+006 9.998740582837e+005 9.998805740464e+005 9.999298226225e+005 1.000388088098e+006 1.000548917057e+006 1.000536465355e+006 1.000557096527e+006 1.000762889526e+006 1.000156656001e+006 1.000681483449e+006 1.000026837009e+006 9.997868747505e+005 1.000405609468e+006 9.998176387563e+005 1.000307230049e+006 1.000520641125e+006 1.000584168198e+006 9.997551098110e+005 1.000512282942e+006 1.000466295223e+006 1.000014993998e+006 1.000725268658e+006 9.999949078070e+005 1.000157462462e+006 9.997845907797e+005 9.998390567757e+005 1.000418152012e+006 1.000762955151e+006 1.000244545301e+006 1.000605870548e+006 1.000781417190e+006 1.000775304230e+006 9.998334376213e+005 1.000766675223e+006 1.000022900300e+006 1.000605202316e+006 9.998799563790e+005 9.998271924308e+005 1.000554183476e+006 1.000723971413e+006 1.000357006227e+006 9.997696224408e+005 9.997649628216e+005 9.997547631580e+005 1.000217350919e+006 9.997885421146e+005 9.998359117563e+005 9.998982475280e+005 9.997923769806e+005 1.000170491126e+006 1.000748770304e+006 1.000274994171e+006 1.000271771984e+006 1.000499769259e+006 1.000767197735e+006 9.997937427930e+005 1.000201713657e+006 9.998367774920e+005 1.000683332306e+006 1.000076888236e+006 1.000780911007e+006 9.997930071797e+005 1.000115494729e+006 9.998083184032e+005 1.000519561781e+006 1.000671680601e+006 9.998935363737e+005 1.000704510488e+006 9.997612475231e+005 9.998105105742e+005 1.000341996751e+006 9.998443324264e+005 1.000198385387e+006 1.000060202577e+006 1.000499265810e+006 1.000481000076e+006 9.997434374338e+005 1.000830891441e+006 1.000232383884e+006 1.000267304723e+006 1.000258482502e+006 1.000689584954e+006 1.000629480297e+006 1.000662240131e+006 1.000679838047e+006 1.000378016451e+006 1.000470225506e+006 1.000430673287e+006 9.997825096528e+005 1.000213810886e+006 1.000488540124e+006 1.000527465715e+006 1.000525294905e+006 1.000544968826e+006 1.000490196175e+006 1.000538049719e+006 1.000437826865e+006 1.000541459731e+006 1.000523702882e+006 1.000555661660e+006 1.000532953479e+006 1.000166296672e+006 1.000218909094e+006 1.000313722251e+006 1.000289612567e+006 1.000289201176e+006 1.000182351024e+006 1.000203224984e+006 1.000171943990e+006 1.000339835454e+006 1.000293688629e+006 1.000299035877e+006 1.000185919835e+006 1.000203864885e+006 1.000167961462e+006 1.000275464963e+006 1.000375726535e+006 1.000270679724e+006 1.000191171068e+006 1.000168961382e+006 1.000207125971e+006 1.000267766172e+006 1.000374745039e+006 1.000267059800e+006 1.000192401185e+006 1.000232283302e+006 1.000265410831e+006 1.000258489734e+006 1.000242495632e+006 1.000235771832e+006 1.000239225771e+006 1.000265423093e+006 1.000232293451e+006 1.000258479470e+006 1.000242479743e+006 1.000235777752e+006 1.000239216932e+006 1.000183195698e+006 1.000346693404e+006 1.000202777185e+006 1.000245888680e+006 1.000179867360e+006 1.000224538779e+006 1.000346686911e+006 1.000183227868e+006 1.000202754737e+006 1.000245877789e+006 1.000179867037e+006 1.000224539740e+006 1.000338623941e+006 1.000272914059e+006 1.000153868805e+006 1.000195922078e+006 1.000272870113e+006 1.000338541977e+006 1.000153844012e+006 1.000195567205e+006 1.000307236119e+006 1.000162946034e+006 1.000378567440e+006 1.000206682625e+006 1.000346304580e+006 1.000300993814e+006 1.000162874900e+006 1.000307226803e+006 1.000378718593e+006 1.000206704162e+006 1.000346318654e+006 1.000300995795e+006 1.000170629236e+006 1.000156183693e+006 1.000203102133e+006 1.000169758733e+006 1.000156522525e+006 1.000202862622e+006 1.000259614456e+006 1.000311488054e+006 1.000249748526e+006 1.000259614108e+006 1.000311463625e+006 1.000249719742e+006 1.000164920237e+006 1.000165003352e+006 1.000319301217e+006 1.000239815650e+006 1.000181461671e+006 1.000188346110e+006 1.000318668295e+006 1.000188534369e+006 1.000272322756e+006 1.000228579920e+006 1.000238557074e+006 1.000252279151e+006 1.000272319478e+006 1.000252275015e+006 1.000207593028e+006 1.000267111652e+006 1.000208672416e+006 1.000255039129e+006 1.000352005000e+006 1.000351460731e+006 1.000254594292e+006 1.000321525470e+006 1.000158091155e+006 1.000158073216e+006 1.000272559952e+006 1.000196882126e+006 1.000272567752e+006 1.000284936764e+006 1.000263252443e+006 1.000284927487e+006 1.000271603572e+006 1.000271624924e+006 1.000231057262e+006 1.000284276515e+006 1.000284265762e+006 1.000274304131e+006 1.000208999512e+006 1.000274413212e+006 1.000227680356e+006 1.000211194870e+006 1.000224850321e+006 1.000207724468e+006 1.000238700075e+006 1.000181641473e+006 1.000237761631e+006 1.000178118889e+006 9.999762943697e+005 9.999942669247e+005 1.000298960978e+006 1.000397060956e+006 1.000106320110e+006 1.000417638970e+006 1.000790903150e+006 1.000215401796e+006 1.000722668863e+006 1.000489894334e+006 1.000156278521e+006 1.000302378687e+006 1.000378170594e+006 9.999402241224e+005 1.000396652569e+006 9.999020090557e+005 1.000905978652e+006 1.000706106398e+006 1.000073288428e+006 1.000546979427e+006 1.000655436506e+006 1.000245237394e+006 1.000568879412e+006 9.997294459398e+005 1.000353460868e+006 1.000234112493e+006 1.000772798441e+006 1.000414640980e+006 1.000041742838e+006 1.000037284077e+006 1.000277545960e+006 1.000758518269e+006 9.999872473315e+005 1.000702848995e+006 1.000346947141e+006 1.000614507549e+006 9.999294727603e+005 1.000005708951e+006 1.000012868147e+006 1.000512615945e+006 9.999620144856e+005 1.000654091672e+006 1.000298637151e+006 1.000482813687e+006 1.000638942841e+006 1.000417774091e+006 1.000153434535e+006 1.000437460735e+006 1.000106932561e+006 9.997680985453e+005 1.000313050327e+006 1.000682043040e+006 1.000280675408e+006 9.998820941807e+005 9.998657785274e+005 1.000165029305e+006 1.000223664862e+006 1.000231056073e+006 1.000514308083e+006 1.000506868355e+006 1.000672010067e+006 1.000324921534e+006 1.000451508009e+006 9.998948418535e+005 1.000723634548e+006 9.998338875749e+005 1.000308712849e+006 1.000240331157e+006 1.000316820143e+006 1.000358383695e+006 9.997898460827e+005 9.999403734227e+005 1.000665307073e+006 9.998189415681e+005 9.999005339994e+005 1.000445509207e+006 1.000422910587e+006 9.999332872979e+005 9.999630918674e+005 9.999250358347e+005 1.000204333998e+006 9.999325166390e+005 1.000391793903e+006 1.000484679172e+006 1.000429253069e+006 9.999315943674e+005 1.000122625758e+006 1.000597575841e+006 1.000684829285e+006 1.000363981833e+006 1.000023716427e+006 1.000076552366e+006 9.998513685220e+005 9.997651160461e+005 1.000455220109e+006 1.000693970601e+006 9.997234765726e+005 9.998083309578e+005 1.000442540356e+006 1.000788279053e+006 1.000332031876e+006 9.998603905333e+005 1.000512619163e+006 1.000628664680e+006 1.000318768328e+006 9.999617180158e+005 1.000727091007e+006 1.000212051531e+006 1.000288537658e+006 1.000192041443e+006 1.000202241702e+006 9.997991944202e+005 9.999321241597e+005 1.000426937630e+006 1.000733662040e+006 1.000236729155e+006 9.998229266590e+005 1.000093665333e+006 1.000478002413e+006 1.000480378558e+006 1.000730482750e+006 9.999757444013e+005 9.998676336040e+005 1.000683557550e+006 1.000621773540e+006 1.000629853046e+006 1.000291555625e+006 9.997656291926e+005 1.000342603373e+006 1.000749763740e+006 1.000222436258e+006 1.000731930700e+006 1.000735221969e+006 1.000461441081e+006 9.998339336866e+005 1.000695434492e+006 1.000681972823e+006 9.997499312036e+005 9.999392504292e+005 1.000478433251e+006 1.000253783805e+006 9.999863229242e+005 1.000065447487e+006 1.000703662240e+006 1.000250310494e+006 1.000396730408e+006 1.000722124111e+006 9.999523732139e+005 1.000172177152e+006 1.000445042207e+006 1.000031804573e+006 1.000120501235e+006 1.000559374573e+006 9.999436235505e+005 1.000055076647e+006 9.999638863476e+005 1.000738531003e+006 1.000787615548e+006 9.998415581189e+005 9.999002062062e+005 1.000020826041e+006 1.000530050336e+006 1.000226155162e+006 1.000255895789e+006 1.000759155220e+006 1.000518153579e+006 1.000235432690e+006 1.000364348092e+006 1.000699421013e+006 1.000695509008e+006 1.000411175702e+006 1.000356366942e+006 9.999592383410e+005 1.000201130089e+006 9.999187950973e+005 1.000784204688e+006 9.997211538093e+005 1.000529181992e+006 1.000324021013e+006 1.000022150975e+006 9.998701912204e+005 1.000601703585e+006 9.998599402794e+005 9.997549218708e+005 1.000189640827e+006 1.000634567548e+006 1.000186103830e+006 1.000552573615e+006 1.000338093789e+006 1.000168840054e+006 1.000686020447e+006 9.999803487398e+005 9.997258935498e+005 1.000648972739e+006 1.000106799397e+006 1.000709150138e+006 9.999049880227e+005 1.000627560316e+006 1.000249552843e+006 9.997489324763e+005 1.000653824742e+006 1.000026162774e+006 1.000710923217e+006 9.998566500848e+005 1.000270868234e+006 1.000479126244e+006 9.998289773536e+005 9.998473758465e+005 1.000517897891e+006 1.000153913716e+006 1.000252421079e+006 1.000162345834e+006 1.000045474507e+006 1.000347119616e+006 1.000688282543e+006 1.000478227005e+006 9.999272170030e+005 1.000697052236e+006 1.000087811396e+006 9.997824988187e+005 1.000643230881e+006 1.000161734177e+006 1.000285913426e+006 1.000288532280e+006 1.000346566205e+006 1.000678693813e+006 1.000261599511e+006 1.000123348667e+006 1.000552225498e+006 9.998063902594e+005 1.000494608993e+006 1.000029734911e+006 1.000534217244e+006 1.000101999510e+006 1.000449376483e+006 1.000106348305e+006 1.000062287937e+006 9.990724661330e+005 1.000439060080e+006 1.000466365369e+006 9.997713704049e+005 9.998456339294e+005 1.000384530477e+006 9.998675677046e+005 1.000194067205e+006 1.000224229099e+006 1.000290400641e+006 1.000223400688e+006 1.000287063896e+006 9.998037811836e+005 1.000103878475e+006 9.998265187248e+005 9.997832057281e+005 1.000132352793e+006 1.000279682359e+006 1.000342452318e+006 1.000279452184e+006 1.000646135761e+006 1.000195200600e+006 1.000030270097e+006 1.000300995414e+006 1.000078008752e+006 9.998030501655e+005 1.000583797614e+006 1.000738689910e+006 9.997912377945e+005 9.997270247304e+005 1.000740028754e+006 9.997312109456e+005 1.000002182948e+006 1.000542031621e+006 1.000568871551e+006 1.000386156369e+006 1.000514968074e+006 1.000714044980e+006 1.000363903366e+006 1.000569508510e+006 1.000497433730e+006 1.000470245379e+006 9.999683888282e+005 1.000165865384e+006 1.000165931001e+006 1.000538375246e+006 1.000475562524e+006 9.999927436012e+005 1.000480533763e+006 1.000468917600e+006 1.000554016831e+006 1.000679348580e+006 1.000347477924e+006 9.998737134342e+005 1.000117743725e+006 1.000092155987e+006 1.000596764016e+006 1.000707553288e+006 1.000628698616e+006 1.000049051442e+006 1.000454374709e+006 1.000516086900e+006 1.000541046966e+006 1.000379668494e+006 1.000083024174e+006 1.000253636919e+006 1.000344496874e+006 1.000423505242e+006 1.000303806381e+006 1.000251011481e+006 1.000433102045e+006 1.000250156389e+006 1.000209014931e+006 1.000237955891e+006 1.000100886901e+006 1.000199606754e+006 1.000216784798e+006 1.000355652052e+006 1.000151698569e+006 1.000291015602e+006 1.000142024966e+006 1.000332796943e+006 1.000242307589e+006 1.000350142812e+006 1.000352089904e+006 1.000350507443e+006 1.000343152076e+006 1.000212991391e+006 1.000182205811e+006 1.000066408637e+006 1.000181642579e+006 1.000068404526e+006 1.000480121427e+006 1.000220188373e+006 1.000405724317e+006 1.000224461423e+006 1.000413706782e+006 1.000276922955e+006 1.000209677725e+006 1.000291522392e+006 1.000222092806e+006 1.000221230364e+006 1.000276207864e+006 1.000291364015e+006 1.000195551026e+006 1.000291748029e+006 1.000385482486e+006 1.000287251002e+006 1.000410721033e+006 1.000106344317e+006 1.000164224521e+006 1.000100380089e+006 1.000151625167e+006 1.000383967533e+006 1.000301504560e+006 1.000384667904e+006 1.000303005895e+006 1.000268589034e+006 1.000053618553e+006 1.000478012717e+006 1.000428921418e+006 1.000285008402e+006 1.000194385977e+006 1.000055451971e+006 1.000269774227e+006 1.000473507739e+006 1.000429714319e+006 1.000285654343e+006 1.000194869015e+006 1.000173877108e+006 1.000091260068e+006 1.000276730385e+006 1.000176329279e+006 1.000087683184e+006 1.000280807213e+006 1.000503316269e+006 1.000353453851e+006 1.000421665161e+006 1.000502661158e+006 1.000332298709e+006 1.000422928533e+006 9.999579787381e+005 1.000313498817e+006 9.999745069962e+005 9.999586272406e+005 1.000339624820e+006 9.999905936693e+005 1.000581175138e+006 1.000016899249e+006 1.000553282467e+006 1.000003450708e+006 1.000132978521e+006 1.000445593069e+006 1.000132702492e+006 1.000442715018e+006 1.000192686928e+006 1.000291908810e+006 1.000255814358e+006 1.000194612184e+006 1.000291307574e+006 1.000256176440e+006 1.000151388433e+006 1.000352089217e+006 1.000151032462e+006 1.000351307834e+006 1.000371179384e+006 1.000373520014e+006 1.000316051222e+006 1.000314995437e+006 1.000045019074e+006 1.000038567363e+006 1.000019126195e+006 1.000485621656e+006 9.999667533114e+005 1.000304816427e+006 1.000470304433e+006 1.000444292804e+006 1.000038506674e+006 1.000046756572e+006 1.000056671009e+006 1.000457012503e+006 1.000133984058e+006 1.000459212837e+006 1.000132779821e+006 1.000294393836e+006 1.000011930227e+006 1.000280731168e+006 1.000006123426e+006 9.999913232088e+005 1.000522205366e+006 1.000089187859e+006 9.998072145807e+005 1.000637524049e+006 1.000588578498e+006 1.000492148547e+006 1.000433051100e+006 1.000332715441e+006 1.000477923006e+006 1.000457769562e+006 1.000417942528e+006 1.000039050139e+006 1.000235986126e+006 9.999533026349e+005 1.000302812359e+006 1.000095502121e+006 9.999648073916e+005 1.000102529953e+006 1.000030630209e+006 1.000105661899e+006 1.000613112857e+006 1.000636363233e+006 1.000104723580e+006 1.000483119604e+006 1.000093863995e+006 1.000295228754e+006 1.000499639423e+006 1.000000000000e+006 1.000000000000e+006 1.000105866789e+006 1.000532533013e+006 1.000712334087e+006 1.000022434590e+006 1.000567153905e+006 1.000568875499e+006 9.998547607712e+005 1.000684326656e+006 1.000225519764e+006 1.000630441924e+006 1.000009850404e+006 9.999658096666e+005 9.999565471494e+005 9.998152030838e+005 1.000146233279e+006 1.000020690245e+006 1.000586946274e+006 1.000713152419e+006 1.000239126708e+006 9.999956222502e+005 1.000010872662e+006 1.000604576075e+006 1.000559956886e+006 1.000537085964e+006 1.000224952200e+006 1.000223613188e+006 1.000716566638e+006 1.000217258374e+006 1.000217427539e+006 1.000067282315e+006 1.000178397038e+006 1.000574948791e+006 1.000051390019e+006 9.999352456699e+005 9.998090326977e+005 1.000112317760e+006 1.000361135934e+006 1.000038989277e+006 1.000251047666e+006 9.999596833476e+005 1.000113792085e+006 1.000301019152e+006 1.000664758628e+006 1.000462775064e+006 1.000271331472e+006 1.000635115498e+006 1.000309274574e+006 1.000638535053e+006 1.000373736632e+006 1.000273703150e+006 1.000223147802e+006 1.000659106445e+006 1.000535225653e+006 9.998098594620e+005 1.000118364497e+006 1.000698576987e+006 1.000249442553e+006 1.000249131216e+006 1.000733108339e+006 1.000460414820e+006 1.000281929746e+006 1.000047583290e+006 1.000666275231e+006 1.000562845369e+006 9.998483593314e+005 1.000178636342e+006 1.000232708779e+006 1.000454508675e+006 1.000096483581e+006 1.000036546152e+006 1.000659258443e+006 1.000477392934e+006 1.000652602879e+006 1.000685135310e+006 1.000454370547e+006 9.998068913270e+005 9.999370917357e+005 1.000189387923e+006 1.000580434063e+006 1.000169122614e+006 1.000086423715e+006 9.997993416803e+005 1.000259193298e+006 1.000002392477e+006 1.000513158007e+006 1.000769124481e+006 1.000552340337e+006 1.000557116495e+006 1.000594584025e+006 1.000565888893e+006 1.000575514992e+006 1.000674695655e+006 1.000594944696e+006 1.000087455600e+006 1.000197849488e+006 1.000626947818e+006 1.000169095265e+006 1.000521176818e+006 1.000183736722e+006 9.988992528098e+005 9.999462675199e+005 1.000542054316e+006 1.000530213913e+006 1.000680862907e+006 1.000148357711e+006 1.000091841622e+006 1.000140525166e+006 1.000222469632e+006 1.000222267952e+006 1.000290272855e+006 1.000286824944e+006 1.000644451698e+006 1.000545078232e+006 1.000103778500e+006 1.000109589950e+006 1.000124217214e+006 1.000136121191e+006 1.000530584771e+006 1.000514217860e+006 
        </DataArray>
        <DataArray type="Float64" Name="MEAN_PRESSURE" format="ascii">