<?xml version="1.0"?>
<VTKFile type="UnstructuredGrid" version="0.1" byte_order="LittleEndian">
  <UnstructuredGrid>
    <Piece NumberOfPoints="963" NumberOfCells="1758">
      <Points>
        <DataArray type="Float64" NumberOfComponents="3" format="ascii">
          1.600262034769e+002 1.257989505921e+001 0.000000000000e+000
          1.635346199106e+002 2.000000000000e+001 0.000000000000e+000
          1.554515002484e+002 2.000000000000e+001 0.000000000000e+000
          3.459306441575e+000 1.667621982453e+001 0.000000000000e+000
          3.062266634850e+000 1.705413688405e+001 0.000000000000e+000
          2.873380769063e+000 1.650527725632e+001 0.000000000000e+000
          1.514088444034e+000 1.865189448105e+001 0.000000000000e+000
          1.967902677551e+000 1.834103489750e+001 0.000000000000e+000
          2.034564522234e+000 1.890806711991e+001 0.000000000000e+000
          2.478275273162e+000 1.702762299110e+001 0.000000000000e+000
          2.952621433467e+000 1.774357373580e+001 0.000000000000e+000
          2.237893542067e+000 1.782457469610e+001 0.000000000000e+000
          3.313583922780e+000 3.274674552047e+000 0.000000000000e+000
          2.561432712787e+000 3.156040447793e+000 0.000000000000e+000
          3.047531989640e+000 2.714594415171e+000 0.000000000000e+000
          2.750804692284e+000 3.936058190693e+000 0.000000000000e+000
          2.599039179818e+000 2.451529939148e+000 0.000000000000e+000
          3.139686649742e+000 2.186924052088e+000 0.000000000000e+000
          1.919984553221e+000 3.358010194268e+000 0.000000000000e+000
          1.960900304591e+000 2.773319745251e+000 0.000000000000e+000
          1.894565400391e+000 1.733316857565e+001 0.000000000000e+000
          0.000000000000e+000 1.538461538461e+001 0.000000000000e+000
          5.816229249735e-001 1.567919247147e+001 0.000000000000e+000
          0.000000000000e+000 1.589743589743e+001 0.000000000000e+000
          9.766405669483e+001 2.000000000000e+001 0.000000000000e+000
          1.010672711393e+002 1.500000000000e+001 0.000000000000e+000
          1.029329279907e+002 2.000000000000e+001 0.000000000000e+000
          9.588503785413e+001 1.500000000000e+001 0.000000000000e+000
          1.039231647117e+002 1.000000000000e+001 0.000000000000e+000
          9.860830811271e+001 1.000000000000e+001 0.000000000000e+000
          1.010672711397e+002 5.000000000000e+000 0.000000000000e+000
          9.766405669557e+001 0.000000000000e+000 0.000000000000e+000
          1.029329279915e+002 0.000000000000e+000 0.000000000000e+000
          9.588503785449e+001 5.000000000000e+000 0.000000000000e+000
          7.892434178002e+001 2.000000000000e+001 0.000000000000e+000
          8.173808356948e+001 1.500000000000e+001 0.000000000000e+000
          8.328058896910e+001 2.000000000000e+001 0.000000000000e+000
          7.679274808893e+001 1.514423393202e+001 0.000000000000e+000
          7.970503892166e+001 1.000000000000e+001 0.000000000000e+000
          8.409930620613e+001 1.000000000000e+001 0.000000000000e+000
          8.173808356980e+001 5.000000000000e+000 0.000000000000e+000
          7.892434178065e+001 0.000000000000e+000 0.000000000000e+000
          8.328058896976e+001 0.000000000000e+000 0.000000000000e+000
          7.679274808925e+001 4.855766067979e+000 0.000000000000e+000
          1.084583939765e+002 2.000000000000e+001 0.000000000000e+000
          1.122011528880e+002 1.500000000000e+001 0.000000000000e+000
          1.142529496098e+002 2.000000000000e+001 0.000000000000e+000
          1.065018792644e+002 1.500000000000e+001 0.000000000000e+000
          1.153419838410e+002 1.000000000000e+001 0.000000000000e+000
          1.094968549120e+002 1.000000000000e+001 0.000000000000e+000
          1.122011528884e+002 5.000000000000e+000 0.000000000000e+000
          1.084583939773e+002 0.000000000000e+000 0.000000000000e+000
          1.142529496106e+002 0.000000000000e+000 0.000000000000e+000
          1.065018792648e+002 5.000000000000e+000 0.000000000000e+000
          1.181779812237e+002 1.500000000000e+001 0.000000000000e+000
          1.203297004775e+002 2.000000000000e+001 0.000000000000e+000
          1.214717707847e+002 1.000000000000e+001 0.000000000000e+000
          1.181779812242e+002 5.000000000000e+000 0.000000000000e+000
          1.203297004784e+002 0.000000000000e+000 0.000000000000e+000
          7.477039199538e+001 2.000000000000e+001 0.000000000000e+000
          7.551483469771e+001 1.000000000000e+001 0.000000000000e+000
          7.296959467356e+001 1.385646386579e+001 0.000000000000e+000
          7.477039199599e+001 0.000000000000e+000 0.000000000000e+000
          7.296959467379e+001 6.143536134207e+000 0.000000000000e+000
          6.918477198508e+001 1.366665532880e+001 0.000000000000e+000
          6.746477463053e+001 1.000000000000e+001 0.000000000000e+000
          7.151921701478e+001 1.000000000000e+001 0.000000000000e+000
          6.918477198529e+001 6.333344671202e+000 0.000000000000e+000
          9.263986346551e+001 2.000000000000e+001 0.000000000000e+000
          9.094345943471e+001 1.500000000000e+001 0.000000000000e+000
          9.354026529380e+001 1.000000000000e+001 0.000000000000e+000
          9.263986346623e+001 0.000000000000e+000 0.000000000000e+000
          9.094345943506e+001 5.000000000000e+000 0.000000000000e+000
          1.244344522558e+002 1.503312574389e+001 0.000000000000e+000
          1.267023895482e+002 2.000000000000e+001 0.000000000000e+000
          1.285510028831e+002 1.020485663255e+001 0.000000000000e+000
          1.244344522563e+002 5.033125743893e+000 0.000000000000e+000
          1.267023895491e+002 0.000000000000e+000 0.000000000000e+000
          8.623136018348e+001 1.500000000000e+001 0.000000000000e+000
          8.784898578901e+001 2.000000000000e+001 0.000000000000e+000
          8.870757443665e+001 1.000000000000e+001 0.000000000000e+000
          8.623136018382e+001 5.000000000000e+000 0.000000000000e+000
          8.784898578969e+001 0.000000000000e+000 0.000000000000e+000
          4.872472752737e+000 0.000000000000e+000 0.000000000000e+000
          4.204479229380e+000 6.412840757122e-001 0.000000000000e+000
          4.157376851380e+000 0.000000000000e+000 0.000000000000e+000
          5.192892237051e+000 7.280355562789e-001 0.000000000000e+000
          1.306630304579e+000 6.212843344151e-001 0.000000000000e+000
          1.050228457081e+000 0.000000000000e+000 0.000000000000e+000
          1.614006202528e+000 0.000000000000e+000 0.000000000000e+000
          1.266763055794e+001 1.554696422866e+001 0.000000000000e+000
          1.263589100638e+001 1.657720348306e+001 0.000000000000e+000
          1.174268578662e+001 1.633018318031e+001 0.000000000000e+000
          6.588835695415e+000 7.505681085529e+000 0.000000000000e+000
          6.456871838389e+000 6.658671683861e+000 0.000000000000e+000
          7.208099140752e+000 7.038822846307e+000 0.000000000000e+000
          4.412623338166e+000 9.138856431549e+000 0.000000000000e+000
          4.024185797397e+000 8.708923235630e+000 0.000000000000e+000
          4.601447447338e+000 8.507292699647e+000 0.000000000000e+000
          5.325995059827e-001 6.308307298123e+000 0.000000000000e+000
          0.000000000000e+000 6.666666666655e+000 0.000000000000e+000
          0.000000000000e+000 6.153846153835e+000 0.000000000000e+000
          3.986461521768e+000 8.146114708182e+000 0.000000000000e+000
          2.411603373059e+000 6.510912162016e+000 0.000000000000e+000
          1.807525763324e+000 6.938080373464e+000 0.000000000000e+000
          1.686779352680e+000 6.178928843543e+000 0.000000000000e+000
          2.510760620997e+000 7.229076682239e+000 0.000000000000e+000
          3.166991983438e+000 6.906135870389e+000 0.000000000000e+000
          3.452788915829e+000 6.276851216781e+000 0.000000000000e+000
          3.340122000742e+000 5.656365440432e+000 0.000000000000e+000
          4.047936562877e+000 5.873561587395e+000 0.000000000000e+000
          1.802463974828e+000 1.292744708026e+001 0.000000000000e+000
          1.383967161336e+000 1.330299552906e+001 0.000000000000e+000
          1.329690820161e+000 1.266495373033e+001 0.000000000000e+000
          2.267922292389e+000 1.431116835808e+001 0.000000000000e+000
          2.854613987538e+000 1.466581611369e+001 0.000000000000e+000
          2.339869278674e+000 1.493776402241e+001 0.000000000000e+000
          4.690956878046e+000 3.115726773737e+000 0.000000000000e+000
          4.014773718330e+000 2.850429494150e+000 0.000000000000e+000
          4.643493383296e+000 2.293565471327e+000 0.000000000000e+000
          5.186083944243e+000 1.661927139510e+000 0.000000000000e+000
          5.452965511439e+000 2.679881546544e+000 0.000000000000e+000
          5.360460104304e+000 3.539902157655e+000 0.000000000000e+000
          6.197986304192e+000 3.115706366113e+000 0.000000000000e+000
          7.929356606585e-001 1.634705420870e+001 0.000000000000e+000
          1.222819867503e+000 1.599517159419e+001 0.000000000000e+000
          1.215723647926e+000 1.546209040954e+001 0.000000000000e+000
          1.770601276021e+000 1.521217632514e+001 0.000000000000e+000
          1.242830150061e+000 1.493919370237e+001 0.000000000000e+000
          1.166444124506e+000 4.610115997312e+000 0.000000000000e+000
          1.851620547934e+000 4.486892013458e+000 0.000000000000e+000
          1.494152702314e+000 5.145235789232e+000 0.000000000000e+000
          1.353088107040e+000 4.090803091641e+000 0.000000000000e+000
          3.802567455935e+000 5.084697985980e+000 0.000000000000e+000
          1.014840185783e+000 5.494768572296e+000 0.000000000000e+000
          8.831064584820e-001 5.109311190608e+000 0.000000000000e+000
          1.727903958959e+000 1.618384478933e+001 0.000000000000e+000
          1.343261525342e+000 1.651800241408e+001 0.000000000000e+000
          3.308120627291e+000 8.593311644828e+000 0.000000000000e+000
[...]
      <PointData Scalars="LIQUID_PRESSURE">
        <DataArray type="Float64" Name="LIQUID_PRESSURE" format="ascii">
          1.002722700047e+006 1.002217056615e+006 1.001834159905e+006 1.000228485159e+006 1.000378639328e+006 1.000579675442e+006 1.000515139471e+006 1.001123776515e+006 1.001167804194e+006 1.001151179991e+006 1.000477248017e+006 1.001206951452e+006 1.000156558699e+006 1.000989633760e+006 1.000361517407e+006 1.000658568391e+006 1.000981579834e+006 1.000231787201e+006 1.001095323972e+006 1.001164519068e+006 1.001001142677e+006 1.001050932375e+006 1.000646956302e+006 1.001044402393e+006 1.000541692301e+006 1.000536975268e+006 1.000527309182e+006 1.000543775953e+006 1.000524466948e+006 1.000539637967e+006 1.000536991415e+006 1.000541694464e+006 1.000527683582e+006 1.000543841182e+006 1.000590889056e+006 1.000577154137e+006 1.000578828917e+006 1.000595242746e+006 1.000596307368e+006 1.000572119779e+006 1.000577258508e+006 1.000590997822e+006 1.000578803183e+006 1.000594833997e+006 1.000512699824e+006 1.000493891709e+006 1.000482508300e+006 1.000516132740e+006 1.000478056155e+006 1.000508549869e+006 1.000493771042e+006 1.000512372056e+006 1.000483587371e+006 1.000516352567e+006 1.000468255342e+006 1.000458356367e+006 1.000459215556e+006 1.000471934379e+006 1.000464745607e+006 1.000609329564e+006 1.000587371611e+006 1.000588593926e+006 1.000609059779e+006 1.000589239274e+006 1.000576357534e+006 1.000591258624e+006 1.000643854101e+006 1.000576654671e+006 1.000564714543e+006 1.000557363756e+006 1.000560606131e+006 1.000564725380e+006 1.000557350558e+006 1.000451194317e+006 1.000451280956e+006 1.000404973575e+006 1.000445998994e+006 1.000422894780e+006 1.000582089543e+006 1.000560080045e+006 1.000561569166e+006 1.000582073840e+006 1.000560084923e+006 1.000881603427e+006 1.001062236644e+006 1.000933833171e+006 1.000421602260e+006 1.000274373305e+006 1.000178265704e+006 1.000702947224e+006 1.000738644870e+006 1.000529301385e+006 1.000614934101e+006 1.001207006490e+006 1.001164530641e+006 1.000620646545e+006 1.001183233210e+006 1.000878698470e+006 1.000993130226e+006 1.000653832999e+006 1.001115161599e+006 1.001074874100e+006 1.000853639485e+006 1.001118862445e+006 1.000946638282e+006 1.000810530955e+006 1.000975051044e+006 1.000183985520e+006 1.000205024560e+006 1.000162518208e+006 1.000960713779e+006 1.000901076244e+006 1.000321020409e+006 1.000265219830e+006 1.001228297088e+006 1.000583362862e+006 1.001202189639e+006 1.000939662514e+006 1.000889570238e+006 1.000976192856e+006 1.000410634246e+006 1.000234589361e+006 1.000192986733e+006 1.000859795047e+006 1.000437971083e+006 1.000162318612e+006 1.000161448342e+006 1.000859104649e+006 1.000168458151e+006 1.000171380036e+006 1.000905638332e+006 1.000447092021e+006 1.000245247711e+006 1.000523607932e+006 1.000189952223e+006 1.000294374805e+006 1.000751208900e+006 1.000222110894e+006 1.000156037535e+006 1.000804560972e+006 1.000160374091e+006 1.000362981998e+006 1.000413827949e+006 1.000210242492e+006 1.000431737661e+006 1.000255321556e+006 1.000306140081e+006 1.000425604322e+006 1.000400956137e+006 1.000521964763e+006 1.000963822121e+006 1.000963308555e+006 1.000992900568e+006 1.000190283882e+006 1.000727017610e+006 1.001202742100e+006 1.000892689089e+006 1.000877732923e+006 1.000406624412e+006 1.000206371408e+006 1.000606378037e+006 1.000412756017e+006 1.000280468846e+006 1.000281698885e+006 1.000328796830e+006 1.000805352625e+006 1.000973539979e+006 1.000949829775e+006 1.000982190813e+006 1.001190131968e+006 1.000569124306e+006 1.001104649722e+006 1.000436088003e+006 1.000187694606e+006 1.000822343473e+006 1.000223393819e+006 1.000719059932e+006 1.000931930171e+006 1.001006087812e+006 1.000154154149e+006 1.000936103691e+006 1.000887701512e+006 1.000421185506e+006 1.001150838351e+006 1.000396150930e+006 1.000559805434e+006 1.000188320410e+006 1.000244313780e+006 1.000837053860e+006 1.001190600512e+006 1.000657188073e+006 1.001025777035e+006 1.001209224843e+006 1.001201747625e+006 1.000231972283e+006 1.001192993843e+006 1.000432673442e+006 1.001027976305e+006 1.000282883899e+006 1.000230840910e+006 1.000974567850e+006 1.001152302277e+006 1.000775526672e+006 1.000172399079e+006 1.000165440335e+006 1.000159100308e+006 1.000630837669e+006 1.000190914855e+006 1.000239163816e+006 1.000304668694e+006 1.000192156397e+006 1.000584467265e+006 1.001176429861e+006 1.000672369229e+006 1.000668776820e+006 1.000917384828e+006 1.001194335929e+006 1.000191590552e+006 1.000616220369e+006 1.000240647987e+006 1.001105995213e+006 1.000485939127e+006 1.001203039551e+006 1.000193755378e+006 1.000526743397e+006 1.000209844266e+006 1.000941242280e+006 1.001094528348e+006 1.000295475518e+006 1.001130775815e+006 1.000162582885e+006 1.000212670796e+006 1.000756223987e+006 1.000249511622e+006 1.000602210583e+006 1.000466461932e+006 1.000921384443e+006 1.000903222228e+006 1.000142589451e+006 1.001261477716e+006 1.000647578761e+006 1.000671290224e+006 1.000665258721e+006 1.001108671095e+006 1.001051115445e+006 1.001084042705e+006 1.001101440857e+006 1.000785522792e+006 1.000890683262e+006 1.000838490276e+006 1.000182234921e+006 1.000615866175e+006 1.000912072158e+006 1.000942996696e+006 1.000950213511e+006 1.000970024856e+006 1.000899452604e+006 1.000963314778e+006 1.000844838492e+006 1.000965486376e+006 1.000936272099e+006 1.000982729915e+006 1.000958831672e+006 1.000551294008e+006 1.000606798247e+006 1.000712108295e+006 1.000690128286e+006 1.000686299155e+006 1.000567873817e+006 1.000588848841e+006 1.000558439185e+006 1.000740512829e+006 1.000694724992e+006 1.000697379508e+006 1.000572024996e+006 1.000599879986e+006 1.000555448657e+006 1.000673033568e+006 1.000791351388e+006 1.000669949615e+006 1.000582229262e+006 1.000556371828e+006 1.000603509300e+006 1.000664256273e+006 1.000790408063e+006 1.000665923620e+006 1.000583614148e+006 1.000637726872e+006 1.000673973978e+006 1.000663653851e+006 1.000651472172e+006 1.000639981468e+006 1.000645434113e+006 1.000673985728e+006 1.000637734843e+006 1.000663643077e+006 1.000651452317e+006 1.000639987060e+006 1.000645423183e+006 1.000582489354e+006 1.000762017000e+006 1.000604286271e+006 1.000653471580e+006 1.000577714639e+006 1.000627815199e+006 1.000762010443e+006 1.000582525607e+006 1.000604262269e+006 1.000653460026e+006 1.000577715047e+006 1.000627816186e+006 1.000751966930e+006 1.000681906376e+006 1.000555934248e+006 1.000601513870e+006 1.000681859245e+006 1.000751883272e+006 1.000555899021e+006 1.000601148564e+006 1.000718968287e+006 1.000558030917e+006 1.000795588726e+006 1.000604177696e+006 1.000758708702e+006 1.000711040242e+006 1.000557962741e+006 1.000718960441e+006 1.000795744456e+006 1.000604200984e+006 1.000758725064e+006 1.000711042255e+006 1.000562480915e+006 1.000544771357e+006 1.000600777811e+006 1.000561534636e+006 1.000545090624e+006 1.000600498326e+006 1.000668129033e+006 1.000725091573e+006 1.000656800269e+006 1.000668121995e+006 1.000725074187e+006 1.000656777755e+006 1.000564876219e+006 1.000564994286e+006 1.000726010096e+006 1.000642591038e+006 1.000572229971e+006 1.000583992863e+006 1.000725342513e+006 1.000584179423e+006 1.000682110571e+006 1.000632035597e+006 1.000643309016e+006 1.000660545436e+006 1.000682106694e+006 1.000660539640e+006 1.000600539072e+006 1.000667671752e+006 1.000601749753e+006 1.000665276835e+006 1.000767241708e+006 1.000766721944e+006 1.000664888209e+006 1.000729112429e+006 1.000552862703e+006 1.000552848862e+006 1.000680030649e+006 1.000597565981e+006 1.000680039413e+006 1.000692985394e+006 1.000668832532e+006 1.000692974726e+006 1.000680156217e+006 1.000680161801e+006 1.000635899549e+006 1.000696754239e+006 1.000696744582e+006 1.000675622594e+006 1.000597105049e+006 1.000675603073e+006 1.000633863806e+006 1.000596583395e+006 1.000610540049e+006 1.000592738834e+006 1.000626539229e+006 1.000557019749e+006 1.000624994821e+006 1.000552957829e+006 1.000381674635e+006 1.000402201915e+006 1.000710391448e+006 1.000812215363e+006 1.000518106979e+006 1.000834615622e+006 1.001217859497e+006 1.000626299165e+006 1.001152703191e+006 1.000903191002e+006 1.000564247649e+006 1.000718448475e+006 1.000785363850e+006 1.000346690660e+006 1.000978513082e+006 9.996267862681e+005 1.000789479360e+006 1.001124715820e+006 1.000483390088e+006 1.000964914863e+006 1.001076327596e+006 1.000658130756e+006 1.000991371367e+006 1.000130641413e+006 1.000768842573e+006 1.000648115485e+006 1.001201504020e+006 1.000833442387e+006 1.000447365484e+006 1.000446100643e+006 1.000690433647e+006 1.001185931841e+006 1.000393085434e+006 1.001122669099e+006 1.000753317066e+006 1.001035709467e+006 1.000340209565e+006 1.000410887525e+006 1.000419082487e+006 1.000929766139e+006 1.000369746254e+006 1.001075144392e+006 1.000714992894e+006 1.000898072051e+006 1.001060863647e+006 1.000834235546e+006 1.000556761171e+006 1.000855869675e+006 1.000518873644e+006 1.000171253251e+006 1.000729723901e+006 1.001103722169e+006 1.000689251384e+006 1.000283642148e+006 1.000270184417e+006 1.000576577672e+006 1.000635622698e+006 1.000640811947e+006 1.000928898467e+006 1.000923152189e+006 1.001092766947e+006 1.000740761315e+006 1.000870596469e+006 1.000301864589e+006 1.001144378357e+006 1.000235707461e+006 1.000722297799e+006 1.000649824607e+006 1.000729616265e+006 1.000774727711e+006 1.000192045189e+006 1.000346202868e+006 1.001085952234e+006 1.000222168664e+006 1.000302971344e+006 1.000860892705e+006 1.000841607283e+006 1.000336392440e+006 1.000370172572e+006 1.000332176384e+006 1.000617321821e+006 1.000336692516e+006 1.000806954919e+006 1.000900267764e+006 1.000847270006e+006 1.000337824504e+006 1.000531299593e+006 1.001017705782e+006 1.001108410822e+006 1.000780865764e+006 1.000431214524e+006 1.000485440658e+006 1.000254374051e+006 1.000166634415e+006 1.000869353914e+006 1.001115082730e+006 1.000123143343e+006 1.000208483553e+006 1.000859854594e+006 1.001215794347e+006 1.000745558854e+006 1.000261482455e+006 1.000930388339e+006 1.001049989481e+006 1.000731932046e+006 1.000366277586e+006 1.001147058298e+006 1.000621555448e+006 1.000701756568e+006 1.000607009427e+006 1.000617221469e+006 1.000197633338e+006 1.000337637897e+006 1.000839808924e+006 1.001156200505e+006 1.000646406834e+006 1.000224081218e+006 1.000502574876e+006 1.000892400674e+006 1.000895353791e+006 1.001154842215e+006 1.000383111682e+006 1.000267833697e+006 1.001097628141e+006 1.001041331129e+006 1.001048415788e+006 1.000706083750e+006 1.000166147346e+006 1.000748549882e+006 1.001168680814e+006 1.000631460970e+006 1.001152460586e+006 1.001156819564e+006 1.000878300707e+006 1.000237049407e+006 1.001116521783e+006 1.001108021521e+006 1.000151371221e+006 1.000342745852e+006 1.000896464096e+006 1.000663941785e+006 1.000393691700e+006 1.000473834185e+006 1.001125861835e+006 1.000659212696e+006 1.000814532082e+006 1.001147438853e+006 1.000360800079e+006 1.000582592522e+006 1.000862711953e+006 1.000440685165e+006 1.000529301706e+006 1.000977524433e+006 1.000348230264e+006 1.000461777527e+006 1.000368787375e+006 1.001162017533e+006 1.001217126626e+006 1.000241794278e+006 1.000304023900e+006 1.000425569652e+006 1.000947488456e+006 1.000637881947e+006 1.000668616664e+006 1.001187256558e+006 1.000941537835e+006 1.000648580657e+006 1.000778027113e+006 1.001116288475e+006 1.001118328921e+006 1.000827464168e+006 1.000770563034e+006 1.000367744277e+006 1.000608888759e+006 1.000321947908e+006 1.001213063858e+006 1.000120521867e+006 1.000941496179e+006 1.000738932190e+006 1.000430031132e+006 1.000274487312e+006 1.001018066737e+006 1.000259801126e+006 1.000154035303e+006 1.000593009212e+006 1.001054301969e+006 1.000597195517e+006 1.000968838592e+006 1.000751275412e+006 1.000578068828e+006 1.001106749574e+006 1.000387392921e+006 1.000122478801e+006 1.001072798474e+006 1.000515853996e+006 1.001134376841e+006 1.000311125089e+006 1.001046691231e+006 1.000658346142e+006 1.000149573524e+006 1.001069630338e+006 1.000439144542e+006 1.001130548031e+006 1.000259814703e+006 1.000677491283e+006 1.000888962392e+006 1.000231932597e+006 1.000251424433e+006 1.000934547186e+006 1.001228072126e+006 1.000788434515e+006 1.000693813038e+006 1.000456868523e+006 1.000753323485e+006 1.001112904876e+006 1.000897999157e+006 1.000331957275e+006 1.001115878564e+006 1.000497945556e+006 1.000185174724e+006 1.001058518539e+006 1.000568781527e+006 1.000678154100e+006 1.000681306246e+006 1.000752733798e+006 1.001099842685e+006 1.000677593746e+006 1.000532222932e+006 1.000968448874e+006 1.000207523558e+006 1.000913121297e+006 1.000430398530e+006 1.000953816744e+006 1.000512175817e+006 1.000861002994e+006 1.000517552676e+006 1.000470434832e+006 9.976130826157e+005 9.993720606577e+005 1.000884628755e+006 1.000173577250e+006 1.000250851389e+006 1.000797800033e+006 1.000274240007e+006 1.000599316542e+006 1.000636214211e+006 1.000702768930e+006 1.000635055071e+006 1.000699130841e+006 1.000205937749e+006 1.000506212774e+006 1.000229610305e+006 1.000181834187e+006 1.000534896653e+006 1.000690194225e+006 1.000756456046e+006 1.000689964409e+006 1.001062993953e+006 1.000605162354e+006 1.000440737672e+006 1.000714206467e+006 1.000486917811e+006 1.000203889732e+006 1.001005221472e+006 1.001160838143e+006 1.000192627339e+006 1.000125711705e+006 1.001168115282e+006 1.000134491243e+006 1.000409306719e+006 1.000959462448e+006 1.000698280966e+006 1.000458692474e+006 1.000924785474e+006 1.001143095960e+006 1.000782405204e+006 1.000991103040e+006 1.000916499549e+006 1.000879183626e+006 1.000372766346e+006 1.000534195251e+006 1.000534060069e+006 1.000956610853e+006 1.000892464923e+006 1.000396859268e+006 1.000900986527e+006 1.000888199613e+006 1.000972946155e+006 1.001100106224e+006 1.000761315534e+006 1.000275042866e+006 1.000362267294e+006 1.000328169110e+006 1.001013447730e+006 1.001127828940e+006 1.001051433116e+006 1.000457883491e+006 1.000878568311e+006 1.000927539475e+006 1.000965735027e+006 1.000792768697e+006 1.000487142923e+006 1.000662871234e+006 1.000750645932e+006 1.000840827289e+006 1.000716284014e+006 1.000659488508e+006 1.000851202699e+006 1.000661194216e+006 1.000620452876e+006 1.000647575117e+006 1.000506773763e+006 1.000608856891e+006 1.000627843520e+006 1.000766986797e+006 1.000558167908e+006 1.000703427751e+006 1.000549147200e+006 1.000746642403e+006 1.000650909342e+006 1.000761941857e+006 1.000765514326e+006 1.000762293468e+006 1.000756603793e+006 1.000624161512e+006 1.000590999837e+006 1.000472252645e+006 1.000590692037e+006 1.000474375936e+006 1.000898858351e+006 1.000631930827e+006 1.000819648918e+006 1.000636650742e+006 1.000827930718e+006 1.000686500141e+006 1.000616691534e+006 1.000699624584e+006 1.000630122064e+006 1.000627976618e+006 1.000685875018e+006 1.000699077978e+006 1.000602808959e+006 1.000704035322e+006 1.000801585893e+006 1.000700011179e+006 1.000827583920e+006 1.000513034678e+006 1.000572873428e+006 1.000506845764e+006 1.000560329957e+006 1.000795985128e+006 1.000714876186e+006 1.000796585601e+006 1.000716154792e+006 1.000680841095e+006 1.000459120574e+006 1.000893050089e+006 1.000844230706e+006 1.000696482230e+006 1.000607759355e+006 1.000461055568e+006 1.000682059635e+006 1.000888361971e+006 1.000845081647e+006 1.000697222511e+006 1.000608456324e+006 1.000580113765e+006 1.000499885860e+006 1.000688350685e+006 1.000582352032e+006 1.000495763761e+006 1.000692422300e+006 1.000921667918e+006 1.000766612033e+006 1.000837100943e+006 1.000920212322e+006 1.000745186201e+006 1.000838277412e+006 1.000362577511e+006 1.000724977546e+006 1.000379076135e+006 1.000363145033e+006 1.000753141436e+006 1.000395818620e+006 1.000997485590e+006 1.000420353608e+006 1.000968809075e+006 1.000408823780e+006 1.000540430242e+006 1.000863135544e+006 1.000540227062e+006 1.000859781706e+006 1.000598052443e+006 1.000705414047e+006 1.000666914017e+006 1.000600065599e+006 1.000704845455e+006 1.000667253708e+006 1.000557108795e+006 1.000765661614e+006 1.000556741543e+006 1.000764891937e+006 1.000786936223e+006 1.000789602364e+006 1.000728686051e+006 1.000727673891e+006 1.000448077060e+006 1.000440980269e+006 1.000423585213e+006 1.000901865290e+006 1.000373373708e+006 1.000711523320e+006 1.000884462704e+006 1.000858295563e+006 1.000445836256e+006 1.000454725504e+006 1.000465969591e+006 1.000872939850e+006 1.000541201681e+006 1.000875045594e+006 1.000539930184e+006 1.000707201786e+006 1.000417257419e+006 1.000692822675e+006 1.000410973344e+006 1.000398428058e+006 1.000942777883e+006 1.000498381365e+006 1.000211289569e+006 1.001053205053e+006 1.001008657272e+006 1.000910564476e+006 1.000848843483e+006 1.000746662049e+006 1.000893144921e+006 1.000871980310e+006 1.000831474461e+006 1.000446067911e+006 1.000648866858e+006 1.000354937439e+006 1.000713613424e+006 1.000502877005e+006 1.000370893455e+006 1.000510362557e+006 1.000440579274e+006 1.000510188032e+006 1.001032974351e+006 1.001055973821e+006 1.000512888770e+006 1.000902134939e+006 1.000502479284e+006 1.000701400286e+006 1.000918025116e+006 1.000000000000e+006 1.000000000000e+006 1.000281365877e+006 1.000947979574e+006 1.001136393651e+006 1.000432211571e+006 1.000986127351e+006 1.000988917866e+006 1.000258358005e+006 1.001103665805e+006 1.000635247739e+006 1.001050442909e+006 1.000418327816e+006 1.000371420643e+006 1.000360991169e+006 1.000219409539e+006 1.000553666664e+006 1.000430437132e+006 1.001004789010e+006 1.001133722881e+006 1.000653523607e+006 1.000401418275e+006 1.000418434006e+006 1.001020981566e+006 1.000978199559e+006 1.000953780185e+006 1.000602598418e+006 1.000601044121e+006 1.001140503108e+006 1.000625895851e+006 1.000626084577e+006 1.000479931270e+006 1.000585937567e+006 1.000995255705e+006 1.000458785511e+006 1.000341879603e+006 1.000209253165e+006 1.000523782074e+006 1.000773727375e+006 1.000446427901e+006 1.000663805130e+006 1.000364883474e+006 1.000335078443e+006 1.000392128402e+006 1.001086908056e+006 1.000878145641e+006 1.000475350239e+006 1.001055607140e+006 1.000713702545e+006 1.001060791307e+006 1.000786982327e+006 1.000685971702e+006 1.000489028957e+006 1.001080365618e+006 1.000956950788e+006 1.000214586379e+006 1.000524613761e+006 1.001119807355e+006 1.000659522391e+006 1.000659106013e+006 1.001153286490e+006 1.000869082532e+006 1.000694950719e+006 1.000458950962e+006 1.001083762591e+006 1.000975801017e+006 1.000251358726e+006 1.000588662834e+006 1.000647097583e+006 1.000866600477e+006 1.000505629817e+006 1.000441396648e+006 1.001081277427e+006 1.000891020662e+006 1.001075621537e+006 1.001106838401e+006 1.000870458281e+006 1.000207885350e+006 1.000341960518e+006 1.000402468691e+006 1.000996554276e+006 1.001480981474e+006 1.000495488126e+006 1.000200472447e+006 1.000670651754e+006 1.000408069360e+006 1.000926870022e+006 1.001189640160e+006 1.000968988552e+006 1.000969892810e+006 1.001017624475e+006 1.000987534266e+006 1.000998697031e+006 1.001096276658e+006 1.001013672341e+006 1.000594136913e+006 1.000283937758e+006 1.000610619517e+006 1.000400433416e+006 1.000934122099e+006 1.000382425085e+006 9.977605890527e+005 1.000347310556e+006 1.000952863145e+006 1.000955169397e+006 1.001101189179e+006 1.000401496604e+006 1.000500470328e+006 1.000549268618e+006 1.000629562764e+006 1.000629326096e+006 1.000704436521e+006 1.000700868852e+006 1.001067219268e+006 1.000956553800e+006 1.000507563167e+006 1.000513378828e+006 1.000525745536e+006 1.000538119128e+006 1.000942640455e+006 1.000937113406e+006 
        </DataArray>
        <DataArray type="Float64" Name="MEAN_PRESSURE" format="ascii">