<?xml version="1.0"?>
<VTKFile type="UnstructuredGrid" version="0.1" byte_order="LittleEndian">
  <UnstructuredGrid>
    <Piece NumberOfPoints="963" NumberOfCells="1758">
      <Points>
        <DataArray type="Float64" NumberOfComponents="3" format="ascii">
          1.600262034769e+002 1.257989505921e+001 0.000000000000e+000
          1.635346199106e+002 2.000000000000e+001 0.000000000000e+000
          1.554515002484e+002 2.000000000000e+001 0.000000000000e+000
          3.459306441575e+000 1.667621982453e+001 0.000000000000e+000
          3.062266634850e+000 1.705413688405e+001 0.000000000000e+000
          2.873380769063e+000 1.650527725632e+001 0.000000000000e+000
          1.514088444034e+000 1.865189448105e+001 0.000000000000e+000
          1.967902677551e+000 1.834103489750e+001 0.000000000000e+000
          2.034564522234e+000 1.890806711991e+001 0.000000000000e+000
          2.478275273162e+000 1.702762299110e+001 0.000000000000e+000
          2.952621433467e+000 1.774357373580e+001 0.000000000000e+000
          2.237893542067e+000 1.782457469610e+001 0.000000000000e+000
          3.313583922780e+000 3.274674552047e+000 0.000000000000e+000
          2.561432712787e+000 3.156040447793e+000 0.000000000000e+000
          3.047531989640e+000 2.714594415171e+000 0.000000000000e+000
          2.750804692284e+000 3.936058190693e+000 0.000000000000e+000
          2.599039179818e+000 2.451529939148e+000 0.000000000000e+000
          3.139686649742e+000 2.186924052088e+000 0.000000000000e+000
          1.919984553221e+000 3.358010194268e+000 0.000000000000e+000
          1.960900304591e+000 2.773319745251e+000 0.000000000000e+000
          1.894565400391e+000 1.733316857565e+001 0.000000000000e+000
          0.000000000000e+000 1.538461538461e+001 0.000000000000e+000
          5.816229249735e-001 1.567919247147e+001 0.000000000000e+000
          0.000000000000e+000 1.589743589743e+001 0.000000000000e+000
          9.766405669483e+001 2.000000000000e+001 0.000000000000e+000
          1.010672711393e+002 1.500000000000e+001 0.000000000000e+000
          1.029329279907e+002 2.000000000000e+001 0.000000000000e+000
          9.588503785413e+001 1.500000000000e+001 0.000000000000e+000
          1.039231647117e+002 1.000000000000e+001 0.000000000000e+000
          9.860830811271e+001 1.000000000000e+001 0.000000000000e+000
          1.010672711397e+002 5.000000000000e+000 0.000000000000e+000
          9.766405669557e+001 0.000000000000e+000 0.000000000000e+000
          1.029329279915e+002 0.000000000000e+000 0.000000000000e+000
          9.588503785449e+001 5.000000000000e+000 0.000000000000e+000
          7.892434178002e+001 2.000000000000e+001 0.000000000000e+000
          8.173808356948e+001 1.500000000000e+001 0.000000000000e+000
          8.328058896910e+001 2.000000000000e+001 0.000000000000e+000
          7.679274808893e+001 1.514423393202e+001 0.000000000000e+000
          7.970503892166e+001 1.000000000000e+001 0.000000000000e+000
          8.409930620613e+001 1.000000000000e+001 0.000000000000e+000
          8.173808356980e+001 5.000000000000e+000 0.000000000000e+000
          7.892434178065e+001 0.000000000000e+000 0.000000000000e+000
          8.328058896976e+001 0.000000000000e+000 0.000000000000e+000
          7.679274808925e+001 4.855766067979e+000 0.000000000000e+000
          1.084583939765e+002 2.000000000000e+001 0.000000000000e+000
          1.122011528880e+002 1.500000000000e+001 0.000000000000e+000
          1.142529496098e+002 2.000000000000e+001 0.000000000000e+000
          1.065018792644e+002 1.500000000000e+001 0.000000000000e+000
          1.153419838410e+002 1.000000000000e+001 0.000000000000e+000
          1.094968549120e+002 1.000000000000e+001 0.000000000000e+000
          1.122011528884e+002 5.000000000000e+000 0.000000000000e+000
          1.084583939773e+002 0.000000000000e+000 0.000000000000e+000
          1.142529496106e+002 0.000000000000e+000 0.000000000000e+000
          1.065018792648e+002 5.000000000000e+000 0.000000000000e+000
          1.181779812237e+002 1.500000000000e+001 0.000000000000e+000
          1.203297004775e+002 2.000000000000e+001 0.000000000000e+000
          1.214717707847e+002 1.000000000000e+001 0.000000000000e+000
          1.181779812242e+002 5.000000000000e+000 0.000000000000e+000
          1.203297004784e+002 0.000000000000e+000 0.000000000000e+000
          7.477039199538e+001 2.000000000000e+001 0.000000000000e+000
          7.551483469771e+001 1.000000000000e+001 0.000000000000e+000
          7.296959467356e+001 1.385646386579e+001 0.000000000000e+000
          7.477039199599e+001 0.000000000000e+000 0.000000000000e+000
          7.296959467379e+001 6.143536134207e+000 0.000000000000e+000
          6.918477198508e+001 1.366665532880e+001 0.000000000000e+000
          6.746477463053e+001 1.000000000000e+001 0.000000000000e+000
          7.151921701478e+001 1.000000000000e+001 0.000000000000e+000
          6.918477198529e+001 6.333344671202e+000 0.000000000000e+000
          9.263986346551e+001 2.000000000000e+001 0.000000000000e+000
          9.094345943471e+001 1.500000000000e+001 0.000000000000e+000
          9.354026529380e+001 1.000000000000e+001 0.000000000000e+000
          9.263986346623e+001 0.000000000000e+000 0.000000000000e+000
          9.094345943506e+001 5.000000000000e+000 0.000000000000e+000
          1.244344522558e+002 1.503312574389e+001 0.000000000000e+000
          1.267023895482e+002 2.000000000000e+001 0.000000000000e+000
          1.285510028831e+002 1.020485663255e+001 0.000000000000e+000
          1.244344522563e+002 5.033125743893e+000 0.000000000000e+000
          1.267023895491e+002 0.000000000000e+000 0.000000000000e+000
          8.623136018348e+001 1.500000000000e+001 0.000000000000e+000
          8.784898578901e+001 2.000000000000e+001 0.000000000000e+000
          8.870757443665e+001 1.000000000000e+001 0.000000000000e+000
          8.623136018382e+001 5.000000000000e+000 0.000000000000e+000
          8.784898578969e+001 0.000000000000e+000 0.000000000000e+000
          4.872472752737e+000 0.000000000000e+000 0.000000000000e+000
          4.204479229380e+000 6.412840757122e-001 0.000000000000e+000
          4.157376851380e+000 0.000000000000e+000 0.000000000000e+000
          5.192892237051e+000 7.280355562789e-001 0.000000000000e+000
          1.306630304579e+000 6.212843344151e-001 0.000000000000e+000
          1.050228457081e+000 0.000000000000e+000 0.000000000000e+000
          1.614006202528e+000 0.000000000000e+000 0.000000000000e+000
          1.266763055794e+001 1.554696422866e+001 0.000000000000e+000
          1.263589100638e+001 1.657720348306e+001 0.000000000000e+000
          1.174268578662e+001 1.633018318031e+001 0.000000000000e+000
          6.588835695415e+000 7.505681085529e+000 0.000000000000e+000
          6.456871838389e+000 6.658671683861e+000 0.000000000000e+000
          7.208099140752e+000 7.038822846307e+000 0.000000000000e+000
          4.412623338166e+000 9.138856431549e+000 0.000000000000e+000
          4.024185797397e+000 8.708923235630e+000 0.000000000000e+000
          4.601447447338e+000 8.507292699647e+000 0.000000000000e+000
          5.325995059827e-001 6.308307298123e+000 0.000000000000e+000
          0.000000000000e+000 6.666666666655e+000 0.000000000000e+000
          0.000000000000e+000 6.153846153835e+000 0.000000000000e+000
          3.986461521768e+000 8.146114708182e+000 0.000000000000e+000
          2.411603373059e+000 6.510912162016e+000 0.000000000000e+000
          1.807525763324e+000 6.938080373464e+000 0.000000000000e+000
          1.686779352680e+000 6.178928843543e+000 0.000000000000e+000
          2.510760620997e+000 7.229076682239e+000 0.000000000000e+000
          3.166991983438e+000 6.906135870389e+000 0.000000000000e+000
          3.452788915829e+000 6.276851216781e+000 0.000000000000e+000
          3.340122000742e+000 5.656365440432e+000 0.000000000000e+000
          4.047936562877e+000 5.873561587395e+000 0.000000000000e+000
          1.802463974828e+000 1.292744708026e+001 0.000000000000e+000
          1.383967161336e+000 1.330299552906e+001 0.000000000000e+000
          1.329690820161e+000 1.266495373033e+001 0.000000000000e+000
          2.267922292389e+000 1.431116835808e+001 0.000000000000e+000
          2.854613987538e+000 1.466581611369e+001 0.000000000000e+000
          2.339869278674e+000 1.493776402241e+001 0.000000000000e+000
          4.690956878046e+000 3.115726773737e+000 0.000000000000e+000
          4.014773718330e+000 2.850429494150e+000 0.000000000000e+000
          4.643493383296e+000 2.293565471327e+000 0.000000000000e+000
          5.186083944243e+000 1.661927139510e+000 0.000000000000e+000
          5.452965511439e+000 2.679881546544e+000 0.000000000000e+000
          5.360460104304e+000 3.539902157655e+000 0.000000000000e+000
          6.197986304192e+000 3.115706366113e+000 0.000000000000e+000
          7.929356606585e-001 1.634705420870e+001 0.000000000000e+000
          1.222819867503e+000 1.599517159419e+001 0.000000000000e+000
          1.215723647926e+000 1.546209040954e+001 0.000000000000e+000
          1.770601276021e+000 1.521217632514e+001 0.000000000000e+000
          1.242830150061e+000 1.493919370237e+001 0.000000000000e+000
          1.166444124506e+000 4.610115997312e+000 0.000000000000e+000
          1.851620547934e+000 4.486892013458e+000 0.000000000000e+000
          1.494152702314e+000 5.145235789232e+000 0.000000000000e+000
          1.353088107040e+000 4.090803091641e+000 0.000000000000e+000
          3.802567455935e+000 5.084697985980e+000 0.000000000000e+000
          1.014840185783e+000 5.494768572296e+000 0.000000000000e+000
          8.831064584820e-001 5.109311190608e+000 0.000000000000e+000
          1.727903958959e+000 1.618384478933e+001 0.000000000000e+000
          1.343261525342e+000 1.651800241408e+001 0.000000000000e+000
          3.308120627291e+000 8.593311644828e+000 0.000000000000e+000
[...]
      <PointData Scalars="LIQUID_PRESSURE">
        <DataArray type="Float64" Name="LIQUID_PRESSURE" format="ascii">
          9.984072034529e+005 9.992074459248e+005 9.998389422418e+005 1.004605715111e+006 1.004762923699e+006 1.004976945908e+006 1.004941261312e+006 1.005641085350e+006 1.005703163788e+006 1.005640459583e+006 1.004858011900e+006 1.005736464835e+006 1.004514288293e+006 1.005470333858e+006 1.004733320312e+006 1.005092840550e+006 1.005443010327e+006 1.004597225464e+006 1.005610249703e+006 1.005697763837e+006 1.005505783500e+006 1.005535941121e+006 1.004991418495e+006 1.005522728147e+006 1.002950326355e+006 1.002848415566e+006 1.002769567556e+006 1.002962392919e+006 1.002729001032e+006 1.002926755003e+006 1.002847947220e+006 1.002949868573e+006 1.002771856328e+006 1.002962612555e+006 1.003635865137e+006 1.003491669532e+006 1.003455501710e+006 1.003683398864e+006 1.003642002267e+006 1.003381293968e+006 1.003491615403e+006 1.003635394487e+006 1.003455593974e+006 1.003682968264e+006 1.002585420145e+006 1.002432370009e+006 1.002341232717e+006 1.002611507209e+006 1.002289876012e+006 1.002555243739e+006 1.002434760852e+006 1.002577979405e+006 1.002350789052e+006 1.002611801713e+006 1.002297412383e+006 1.002106045022e+006 1.002084846357e+006 1.002277745075e+006 1.002103969372e+006 1.003758566631e+006 1.003687193192e+006 1.003780832858e+006 1.003760264983e+006 1.003783643314e+006 1.003789601055e+006 1.003969046889e+006 1.003969560019e+006 1.003787019051e+006 1.003222444401e+006 1.003171968780e+006 1.003160936475e+006 1.003222528832e+006 1.003171921054e+006 1.002013448739e+006 1.002007774176e+006 1.001942542022e+006 1.002043202111e+006 1.001963694476e+006 1.003441586973e+006 1.003227264731e+006 1.003245715541e+006 1.003441656261e+006 1.003227294726e+006 1.005242978109e+006 1.005557973255e+006 1.005426210603e+006 1.004762634991e+006 1.004654952855e+006 1.004525910922e+006 1.005168393380e+006 1.005108532188e+006 1.004896855190e+006 1.004978079572e+006 1.005660040799e+006 1.005631767903e+006 1.004996624889e+006 1.005608586397e+006 1.005329601824e+006 1.005422490411e+006 1.004993497886e+006 1.005531685206e+006 1.005491864512e+006 1.005290595963e+006 1.005611192154e+006 1.005439401658e+006 1.005291840042e+006 1.005430363561e+006 1.004545838719e+006 1.004606556934e+006 1.004523383569e+006 1.005420678841e+006 1.005387265756e+006 1.004713681874e+006 1.004656956285e+006 1.005747330868e+006 1.004971831201e+006 1.005694589088e+006 1.005339912921e+006 1.005322290564e+006 1.005394364269e+006 1.004750541598e+006 1.004568235892e+006 1.004533363656e+006 1.005304957924e+006 1.004749845126e+006 1.004512713516e+006 1.004517276750e+006 1.005340443681e+006 1.004534155601e+006 1.004515948609e+006 1.005425386567e+006 1.004877445776e+006 1.004633319245e+006 1.004962369301e+006 1.004527402290e+006 1.004605619429e+006 1.005214475628e+006 1.004597861405e+006 1.004536553718e+006 1.005233916219e+006 1.004547546568e+006 1.004685480386e+006 1.004727065971e+006 1.004586149476e+006 1.004750841878e+006 1.004580201264e+006 1.004719693156e+006 1.004802371458e+006 1.004715600780e+006 1.004911706781e+006 1.005438965396e+006 1.005349225156e+006 1.005506260912e+006 1.004559950624e+006 1.005192575051e+006 1.005749609981e+006 1.005339479979e+006 1.005236779049e+006 1.004780264929e+006 1.004588129057e+006 1.005033086857e+006 1.004838651666e+006 1.004682592918e+006 1.004603982228e+006 1.004624093204e+006 1.005268545048e+006 1.005483504863e+006 1.005341892052e+006 1.005491081782e+006 1.005698556697e+006 1.005015068577e+006 1.005589160546e+006 1.004854862114e+006 1.004529345712e+006 1.005260490259e+006 1.004623728496e+006 1.005129124411e+006 1.005302785801e+006 1.005481252282e+006 1.004481356484e+006 1.005448472436e+006 1.005381780671e+006 1.004798731810e+006 1.005638466157e+006 1.004705023316e+006 1.004867541872e+006 1.004574428972e+006 1.004645994405e+006 1.005317155894e+006 1.005704598605e+006 1.005080875053e+006 1.005452384851e+006 1.005724088562e+006 1.005704519309e+006 1.004540134551e+006 1.005691972458e+006 1.004851284173e+006 1.005502476492e+006 1.004667679278e+006 1.004628702086e+006 1.005448711978e+006 1.005685156482e+006 1.005254795017e+006 1.004542373217e+006 1.004498758385e+006 1.004546991805e+006 1.005074931685e+006 1.004567315375e+006 1.004611908334e+006 1.004702301345e+006 1.004517702442e+006 1.005035566163e+006 1.005698148103e+006 1.004245765941e+006 1.004240335178e+006 1.005352408986e+006 1.005701150584e+006 1.004495655756e+006 1.005059081976e+006 1.004608881752e+006 1.005556304489e+006 1.004910973407e+006 1.005656152906e+006 1.004538475328e+006 1.004957282413e+006 1.004553616786e+006 1.005438103340e+006 1.005565461541e+006 1.004624895542e+006 1.005650822466e+006 1.004519520124e+006 1.004576466877e+006 1.005177229502e+006 1.004656240913e+006 1.004923211453e+006 1.004863831613e+006 1.005421989489e+006 1.005406904865e+006 1.004495665751e+006 1.005799398439e+006 1.005102253574e+006 1.004987282344e+006 1.005007992954e+006 1.005544557664e+006 1.005514602022e+006 1.005541369569e+006 1.005547516857e+006 1.005129833722e+006 1.005348910995e+006 1.005179685008e+006 1.004510214416e+006 1.004916508354e+006 1.005395007805e+006 1.005360460590e+006 1.005458458692e+006 1.005478514291e+006 1.005249314639e+006 1.005476295069e+006 1.005178072847e+006 1.005463558103e+006 1.005320325153e+006 1.005503975866e+006 1.005477268273e+006 1.004064436733e+006 1.004096008759e+006 1.004298158414e+006 1.004359937292e+006 1.004250368053e+006 1.004077161322e+006 1.004049316864e+006 1.004091079062e+006 1.004339616323e+006 1.004372820746e+006 1.004272552711e+006 1.004087960401e+006 1.004338350003e+006 1.004151108011e+006 1.004322621673e+006 1.004721356838e+006 1.004368794767e+006 1.004240566503e+006 1.004149491972e+006 1.004343867484e+006 1.004304973653e+006 1.004720981362e+006 1.004361071736e+006 1.004242849422e+006 1.004728186900e+006 1.004771458803e+006 1.004706654501e+006 1.004792289423e+006 1.004681537929e+006 1.004739564916e+006 1.004771450061e+006 1.004728163528e+006 1.004706609955e+006 1.004792277578e+006 1.004681533893e+006 1.004739569238e+006 1.004553952984e+006 1.004846153216e+006 1.004561263545e+006 1.004712341117e+006 1.004486941169e+006 1.004625803748e+006 1.004846138592e+006 1.004554014681e+006 1.004561221367e+006 1.004712306318e+006 1.004486939052e+006 1.004625793484e+006 1.004979213038e+006 1.004862439239e+006 1.004672772869e+006 1.004788509765e+006 1.004862459250e+006 1.004979334754e+006 1.004672775233e+006 1.004788101152e+006 1.004730934444e+006 1.004383772087e+006 1.004792505003e+006 1.004485142982e+006 1.004719180395e+006 1.004698083420e+006 1.004383717750e+006 1.004730930141e+006 1.004792687209e+006 1.004485173778e+006 1.004719215030e+006 1.004698080835e+006 1.004290825854e+006 1.004247486124e+006 1.004386559124e+006 1.004289696577e+006 1.004247769953e+006 1.004386217262e+006 1.004819393683e+006 1.004924712672e+006 1.004778536108e+006 1.004819393336e+006 1.004924834693e+006 1.004778611651e+006 1.004650539401e+006 1.004650693974e+006 1.004554278869e+006 1.004485566628e+006 1.004239584320e+006 1.004380688764e+006 1.004553574101e+006 1.004380873811e+006 1.004764324224e+006 1.004674919525e+006 1.004664710374e+006 1.004765195988e+006 1.004764311216e+006 1.004765189541e+006 1.004272364740e+006 1.004410524103e+006 1.004274190364e+006 1.004873869959e+006 1.005018799030e+006 1.005019086349e+006 1.004874288181e+006 1.004644053271e+006 1.004388435328e+006 1.004388461192e+006 1.004700843064e+006 1.004550586980e+006 1.004700854190e+006 1.004684606561e+006 1.004620786384e+006 1.004684580599e+006 1.004834187428e+006 1.004834137520e+006 1.004726709669e+006 1.004866891348e+006 1.004866924543e+006 1.004383487147e+006 1.004107964092e+006 1.004381468975e+006 1.004771765212e+006 1.004044659183e+006 1.004047168531e+006 1.004039199086e+006 1.004059323573e+006 1.003818455772e+006 1.004044136291e+006 1.003806256063e+006 1.004740067266e+006 1.004805404253e+006 1.005082685120e+006 1.005229022590e+006 1.004938642046e+006 1.005275901727e+006 1.005726938737e+006 1.005026338631e+006 1.005691666493e+006 1.005285385228e+006 1.004930491947e+006 1.005175509924e+006 1.005121450102e+006 1.004743833119e+006 9.996625922922e+005 1.000869450614e+006 9.978761573833e+005 1.005535700675e+006 1.004886435246e+006 1.005377454734e+006 1.005521645035e+006 1.005102467128e+006 1.005470488016e+006 1.004479499922e+006 1.005222154497e+006 1.005097264381e+006 1.005722266362e+006 1.005308049607e+006 1.004801293260e+006 1.004836178194e+006 1.005099819059e+006 1.005700101214e+006 1.004770259643e+006 1.005556583480e+006 1.005085851965e+006 1.005492201513e+006 1.004774933017e+006 1.004761856380e+006 1.004778826756e+006 1.005334624149e+006 1.004768337508e+006 1.005520275554e+006 1.005163894113e+006 1.005282364909e+006 1.005507275973e+006 1.005265529874e+006 1.004876795289e+006 1.005327014283e+006 1.004968773282e+006 1.004565341458e+006 1.005180149538e+006 1.005540660053e+006 1.005036446723e+006 1.004620441910e+006 1.004666257255e+006 1.004989671936e+006 1.005024995761e+006 1.005002673095e+006 1.005310993723e+006 1.005323633079e+006 1.005535756117e+006 1.005154092867e+006 1.005298851925e+006 1.004682021685e+006 1.005597372472e+006 1.004594370388e+006 1.005144869130e+006 1.004994214245e+006 1.005099485959e+006 1.005230078166e+006 1.004555731773e+006 1.004715924572e+006 1.005523353675e+006 1.004590315674e+006 1.004642795597e+006 1.005273496075e+006 1.005291525757e+006 1.004697257350e+006 1.004758885339e+006 1.004719173688e+006 1.005012453214e+006 1.004681123028e+006 1.005203584145e+006 1.005288388014e+006 1.005268701775e+006 1.004708000053e+006 1.004895299870e+006 1.005430019381e+006 1.005597768220e+006 1.005249603797e+006 1.004809917448e+006 1.004869638125e+006 1.004612984549e+006 1.004534567687e+006 1.005262910300e+006 1.005560699246e+006 1.004461794424e+006 1.004534490464e+006 1.005300245327e+006 1.005731957593e+006 1.005166295251e+006 1.004609925888e+006 1.005357926134e+006 1.005487330107e+006 1.005119110038e+006 1.004732882430e+006 1.005554511680e+006 1.004985778056e+006 1.005112400655e+006 1.005058551018e+006 1.005064471209e+006 1.004522993461e+006 1.004712888269e+006 1.005223989920e+006 1.005595323200e+006 1.005022107481e+006 1.004567508007e+006 1.004887781929e+006 1.005268965004e+006 1.005288250815e+006 1.005641187477e+006 1.004798313560e+006 1.004591360667e+006 1.005446896772e+006 1.005476026016e+006 1.005451168365e+006 1.005127142375e+006 1.004502034388e+006 1.005076681839e+006 1.005589779917e+006 1.004992372239e+006 1.005596251683e+006 1.005582727616e+006 1.005306150204e+006 1.004607639399e+006 1.005549032915e+006 1.005625763549e+006 1.004525751010e+006 1.004703320222e+006 1.005359401209e+006 1.005027618834e+006 1.004780173466e+006 1.004849960332e+006 1.005562153121e+006 1.005022478266e+006 1.005282709254e+006 1.005641717560e+006 1.004759113304e+006 1.004959437908e+006 1.005280487157e+006 1.004833880713e+006 1.004930919627e+006 1.005381843275e+006 1.004694708263e+006 1.004815246268e+006 1.004749010428e+006 1.005635027205e+006 1.005748971620e+006 1.004567554187e+006 1.004654842226e+006 1.004778110885e+006 1.005359376039e+006 1.005023226462e+006 1.005061252529e+006 1.005710227129e+006 1.005453385845e+006 1.005065551999e+006 1.005172739940e+006 1.005482845959e+006 1.005560521629e+006 1.005264809581e+006 1.005191317788e+006 1.004775902692e+006 1.004956477107e+006 1.004664101039e+006 1.005737464884e+006 1.004458003079e+006 1.005325722149e+006 1.005192098664e+006 1.004846387481e+006 1.004647754001e+006 1.005402897974e+006 1.004591147207e+006 1.004485465330e+006 1.004908950136e+006 1.005482053287e+006 1.004984862744e+006 1.005358677198e+006 1.005162212339e+006 1.004948986029e+006 1.005547447728e+006 1.004768170877e+006 1.004437798191e+006 1.005562719218e+006 1.004913547970e+006 1.005634064250e+006 1.004703436756e+006 1.005454534534e+006 1.005036969443e+006 1.004513132703e+006 1.005451797577e+006 1.004863983208e+006 1.005529229253e+006 1.004627180231e+006 1.005017657575e+006 1.005248190113e+006 1.004587096453e+006 1.004624963031e+006 1.005337748233e+006 9.989053117945e+005 9.988796742552e+005 9.991734469940e+005 1.004885803117e+006 1.005084905582e+006 1.005597715737e+006 1.005355940801e+006 1.004715033616e+006 1.005536647178e+006 1.004906060541e+006 1.004574903496e+006 1.005447990033e+006 1.004922335926e+006 1.004100539473e+006 1.004111068469e+006 1.005084066411e+006 1.005542461445e+006 1.005135772172e+006 1.004911797752e+006 1.005351261768e+006 1.004564038362e+006 1.005342714855e+006 1.004736999759e+006 1.005382570853e+006 1.004933427522e+006 1.005215303440e+006 1.004930779916e+006 1.004843888630e+006 9.992869902498e+005 9.979699324470e+005 1.005345310107e+006 1.004543279768e+006 1.004634554914e+006 1.005206647579e+006 1.004677244704e+006 1.004935800395e+006 1.004896945965e+006 1.004952528049e+006 1.004893311554e+006 1.004947465090e+006 1.004589353230e+006 1.004820075971e+006 1.004594632108e+006 1.004505443747e+006 1.004692391411e+006 1.004904828081e+006 1.004985208206e+006 1.004904031395e+006 1.005442972698e+006 1.004965580989e+006 1.004866119471e+006 1.005113693707e+006 1.004911017495e+006 1.004565772451e+006 1.005484818800e+006 1.005614493453e+006 1.004537452334e+006 1.004449560335e+006 1.005696584232e+006 1.004511880342e+006 1.004777241417e+006 1.005364311548e+006 9.982365058679e+005 9.985629488520e+005 1.005283216896e+006 1.005682139054e+006 1.005267781307e+006 1.005461322083e+006 1.005361959087e+006 1.005229806065e+006 1.004727235407e+006 1.003685453588e+006 1.003680405039e+006 1.005358122558e+006 1.005321175162e+006 1.004717350711e+006 1.005322008729e+006 1.005291377556e+006 1.005394402689e+006 1.005560661499e+006 1.005201467409e+006 1.004601154319e+006 9.994709832961e+005 9.995637939909e+005 1.005390206328e+006 1.005565867894e+006 1.005512975654e+006 1.004835501797e+006 1.005377304820e+006 1.005299233546e+006 1.005470521393e+006 1.005161824971e+006 1.004699936495e+006 1.004888978476e+006 1.004925028736e+006 1.005149275128e+006 1.004988796736e+006 1.004878267151e+006 1.005167623390e+006 1.004926686092e+006 1.004909404646e+006 1.004926501787e+006 1.004755887626e+006 1.004890807125e+006 1.004916534627e+006 1.005051594230e+006 1.004825906381e+006 1.005011528960e+006 1.004823726532e+006 1.005062298520e+006 1.004930626945e+006 1.005068236746e+006 1.005088381184e+006 1.005068221100e+006 1.005080547899e+006 1.004948200710e+006 1.004904072418e+006 1.004765162697e+006 1.004905816022e+006 1.004768866116e+006 1.005279049373e+006 1.004985628608e+006 1.005165501151e+006 1.004990937147e+006 1.005172884879e+006 1.004925719612e+006 1.004838507545e+006 1.004930355123e+006 1.004873948385e+006 1.004845634401e+006 1.004925202409e+006 1.004925448626e+006 1.004842794508e+006 1.004996082664e+006 1.005129454345e+006 1.004997619901e+006 1.005158891169e+006 1.004793430009e+006 1.004869302351e+006 1.004786461692e+006 1.004859608172e+006 1.005108309421e+006 1.005050448290e+006 1.005108652075e+006 1.005049632117e+006 1.004987840353e+006 1.004744603671e+006 1.005194404597e+006 1.005183531535e+006 1.004983024036e+006 1.004950811508e+006 1.004746565685e+006 1.004989337266e+006 1.005189019814e+006 1.005183573761e+006 1.004984547087e+006 1.004952768009e+006 1.004865832677e+006 1.004827346375e+006 1.005013239898e+006 1.004864624576e+006 1.004818039272e+006 1.005016014890e+006 1.005293362344e+006 1.005103777151e+006 1.005191013927e+006 1.005285969762e+006 1.005084924017e+006 1.005190626429e+006 1.004671987592e+006 1.005064652587e+006 1.004688569412e+006 1.004676076722e+006 1.005112636757e+006 1.004710227361e+006 1.005352121392e+006 1.004726383449e+006 1.005321941114e+006 1.004740920114e+006 1.004845406799e+006 1.005232582089e+006 1.004847296903e+006 1.005224527464e+006 1.004809304882e+006 1.004973785765e+006 1.004923526851e+006 1.004811138330e+006 1.004973668437e+006 1.004923808217e+006 1.004789977194e+006 1.005044285685e+006 1.004788992871e+006 1.005044151655e+006 1.005118681745e+006 1.005123403100e+006 1.005055610780e+006 1.005053599528e+006 1.004720078742e+006 1.004706647776e+006 1.004764640775e+006 1.005302986722e+006 1.004743043789e+006 1.005054091878e+006 1.005222003284e+006 1.005196401421e+006 1.004797433000e+006 1.004808189564e+006 1.004815455230e+006 1.005243755929e+006 1.004864572481e+006 1.005242134266e+006 1.004858880593e+006 1.005054789346e+006 1.004732590458e+006 1.005035835870e+006 1.004720552711e+006 1.004735314172e+006 1.005394342689e+006 1.004844736424e+006 1.004587176409e+006 1.005424116847e+006 1.005417116632e+006 1.005321701776e+006 1.005220345461e+006 1.005118447916e+006 1.005256888303e+006 1.005228499854e+006 1.005189113958e+006 1.004794072199e+006 1.005023645008e+006 1.004657456237e+006 1.005059292976e+006 1.004842720655e+006 1.004719258755e+006 1.004856082092e+006 1.004824511302e+006 1.004820675434e+006 1.005438709493e+006 1.005478933979e+006 1.004892529436e+006 1.005319973037e+006 1.004901029200e+006 1.005035707990e+006 1.005318570388e+006 1.000000000000e+006 1.000000000000e+006 9.995432173995e+005 1.005332272198e+006 1.005605039955e+006 1.004853217360e+006 1.005424904132e+006 1.005425785575e+006 1.004652807724e+006 1.005532515985e+006 1.005025862631e+006 1.005491503811e+006 1.004806118726e+006 1.004725646570e+006 1.004706398623e+006 1.004627581596e+006 1.004924444701e+006 1.004827574194e+006 1.005392995457e+006 1.005560215915e+006 1.005058587316e+006 1.004760275133e+006 1.004793911554e+006 1.005401354888e+006 1.005354783590e+006 1.005353070471e+006 1.003824043440e+006 1.003821261562e+006 1.005622785784e+006 1.004809637323e+006 1.004809965934e+006 1.004887019921e+006 1.004944171269e+006 1.005437494388e+006 1.004802337674e+006 1.004741293744e+006 1.004548919827e+006 1.004955835598e+006 1.005128202377e+006 1.004801330725e+006 1.005043863859e+006 1.004734365868e+006 1.001357382420e+006 1.001222418092e+006 1.005531890862e+006 1.005268485572e+006 1.001022907580e+006 1.005503760835e+006 1.005029844005e+006 1.005517708141e+006 1.005150705607e+006 1.005075918271e+006 9.990834302942e+005 1.005555822547e+006 1.005443420004e+006 1.004607891327e+006 1.004862067683e+006 1.005567004727e+006 1.004898110411e+006 1.004896699787e+006 1.005597932132e+006 1.005216570625e+006 1.005099337033e+006 1.004910670108e+006 1.005500907996e+006 1.005358269231e+006 1.004638985123e+006 1.004990871832e+006 1.005089190604e+006 1.005242142990e+006 1.004891702699e+006 1.004799275775e+006 1.005536907701e+006 1.005280752861e+006 1.005547165067e+006 1.005542256565e+006 1.005268962469e+006 1.004585492331e+006 1.004696596282e+006 1.001578285125e+006 1.005373116101e+006 9.987192469472e+005 1.004857362155e+006 1.004553726819e+006 1.005048302765e+006 1.004783726124e+006 1.005280374364e+006 1.005608648344e+006 1.005322372001e+006 1.005350599204e+006 1.005491273325e+006 1.005461763036e+006 1.005489041384e+006 1.005550394275e+006 1.005448413842e+006 1.001540082097e+006 1.001781107981e+006 1.000760921769e+006 1.001880054961e+006 1.005320297805e+006 1.001736908478e+006 1.001407450956e+006 1.004665692940e+006 1.005318723708e+006 1.005438234976e+006 1.005523615580e+006 1.001787818274e+006 1.004897394465e+006 1.004932072321e+006 1.004804389622e+006 1.004804106855e+006 1.004992083039e+006 1.004988424345e+006 1.005535106709e+006 1.005332435092e+006 1.004734158786e+006 1.004737971830e+006 1.004715988188e+006 1.004732825981e+006 1.005319005669e+006 1.005409430585e+006 
        </DataArray>
        <DataArray type="Float64" Name="MEAN_PRESSURE" format="ascii">