<?xml version="1.0"?>
<VTKFile type="UnstructuredGrid" version="0.1" byte_order="LittleEndian">
  <UnstructuredGrid>
    <Piece NumberOfPoints="963" NumberOfCells="1758">
      <Points>
        <DataArray type="Float64" NumberOfComponents="3" format="ascii">
          1.600262034769e+002 1.257989505921e+001 0.000000000000e+000
          1.635346199106e+002 2.000000000000e+001 0.000000000000e+000
          1.554515002484e+002 2.000000000000e+001 0.000000000000e+000
          3.459306441575e+000 1.667621982453e+001 0.000000000000e+000
          3.062266634850e+000 1.705413688405e+001 0.000000000000e+000
          2.873380769063e+000 1.650527725632e+001 0.000000000000e+000
          1.514088444034e+000 1.865189448105e+001 0.000000000000e+000
          1.967902677551e+000 1.834103489750e+001 0.000000000000e+000
          2.034564522234e+000 1.890806711991e+001 0.000000000000e+000
          2.478275273162e+000 1.702762299110e+001 0.000000000000e+000
          2.952621433467e+000 1.774357373580e+001 0.000000000000e+000
          2.237893542067e+000 1.782457469610e+001 0.000000000000e+000
          3.313583922780e+000 3.274674552047e+000 0.000000000000e+000
          2.561432712787e+000 3.156040447793e+000 0.000000000000e+000
          3.047531989640e+000 2.714594415171e+000 0.000000000000e+000
          2.750804692284e+000 3.936058190693e+000 0.000000000000e+000
          2.599039179818e+000 2.451529939148e+000 0.000000000000e+000
          3.139686649742e+000 2.186924052088e+000 0.000000000000e+000
          1.919984553221e+000 3.358010194268e+000 0.000000000000e+000
          1.960900304591e+000 2.773319745251e+000 0.000000000000e+000
          1.894565400391e+000 1.733316857565e+001 0.000000000000e+000
          0.000000000000e+000 1.538461538461e+001 0.000000000000e+000
          5.816229249735e-001 1.567919247147e+001 0.000000000000e+000
          0.000000000000e+000 1.589743589743e+001 0.000000000000e+000
          9.766405669483e+001 2.000000000000e+001 0.000000000000e+000
          1.010672711393e+002 1.500000000000e+001 0.000000000000e+000
          1.029329279907e+002 2.000000000000e+001 0.000000000000e+000
          9.588503785413e+001 1.500000000000e+001 0.000000000000e+000
          1.039231647117e+002 1.000000000000e+001 0.000000000000e+000
          9.860830811271e+001 1.000000000000e+001 0.000000000000e+000
          1.010672711397e+002 5.000000000000e+000 0.000000000000e+000
          9.766405669557e+001 0.000000000000e+000 0.000000000000e+000
          1.029329279915e+002 0.000000000000e+000 0.000000000000e+000
          9.588503785449e+001 5.000000000000e+000 0.000000000000e+000
          7.892434178002e+001 2.000000000000e+001 0.000000000000e+000
          8.173808356948e+001 1.500000000000e+001 0.000000000000e+000
          8.328058896910e+001 2.000000000000e+001 0.000000000000e+000
          7.679274808893e+001 1.514423393202e+001 0.000000000000e+000
          7.970503892166e+001 1.000000000000e+001 0.000000000000e+000
          8.409930620613e+001 1.000000000000e+001 0.000000000000e+000
          8.173808356980e+001 5.000000000000e+000 0.000000000000e+000
          7.892434178065e+001 0.000000000000e+000 0.000000000000e+000
          8.328058896976e+001 0.000000000000e+000 0.000000000000e+000
          7.679274808925e+001 4.855766067979e+000 0.000000000000e+000
          1.084583939765e+002 2.000000000000e+001 0.000000000000e+000
          1.122011528880e+002 1.500000000000e+001 0.000000000000e+000
          1.142529496098e+002 2.000000000000e+001 0.000000000000e+000
          1.065018792644e+002 1.500000000000e+001 0.000000000000e+000
          1.153419838410e+002 1.000000000000e+001 0.000000000000e+000
          1.094968549120e+002 1.000000000000e+001 0.000000000000e+000
          1.122011528884e+002 5.000000000000e+000 0.000000000000e+000
          1.084583939773e+002 0.000000000000e+000 0.000000000000e+000
          1.142529496106e+002 0.000000000000e+000 0.000000000000e+000
          1.065018792648e+002 5.000000000000e+000 0.000000000000e+000
          1.181779812237e+002 1.500000000000e+001 0.000000000000e+000
          1.203297004775e+002 2.000000000000e+001 0.000000000000e+000
          1.214717707847e+002 1.000000000000e+001 0.000000000000e+000
          1.181779812242e+002 5.000000000000e+000 0.000000000000e+000
          1.203297004784e+002 0.000000000000e+000 0.000000000000e+000
          7.477039199538e+001 2.000000000000e+001 0.000000000000e+000
          7.551483469771e+001 1.000000000000e+001 0.000000000000e+000
          7.296959467356e+001 1.385646386579e+001 0.000000000000e+000
          7.477039199599e+001 0.000000000000e+000 0.000000000000e+000
          7.296959467379e+001 6.143536134207e+000 0.000000000000e+000
          6.918477198508e+001 1.366665532880e+001 0.000000000000e+000
          6.746477463053e+001 1.000000000000e+001 0.000000000000e+000
          7.151921701478e+001 1.000000000000e+001 0.000000000000e+000
          6.918477198529e+001 6.333344671202e+000 0.000000000000e+000
          9.263986346551e+001 2.000000000000e+001 0.000000000000e+000
          9.094345943471e+001 1.500000000000e+001 0.000000000000e+000
          9.354026529380e+001 1.000000000000e+001 0.000000000000e+000
          9.263986346623e+001 0.000000000000e+000 0.000000000000e+000
          9.094345943506e+001 5.000000000000e+000 0.000000000000e+000
          1.244344522558e+002 1.503312574389e+001 0.000000000000e+000
          1.267023895482e+002 2.000000000000e+001 0.000000000000e+000
          1.285510028831e+002 1.020485663255e+001 0.000000000000e+000
          1.244344522563e+002 5.033125743893e+000 0.000000000000e+000
          1.267023895491e+002 0.000000000000e+000 0.000000000000e+000
          8.623136018348e+001 1.500000000000e+001 0.000000000000e+000
          8.784898578901e+001 2.000000000000e+001 0.000000000000e+000
          8.870757443665e+001 1.000000000000e+001 0.000000000000e+000
          8.623136018382e+001 5.000000000000e+000 0.000000000000e+000
          8.784898578969e+001 0.000000000000e+000 0.000000000000e+000
          4.872472752737e+000 0.000000000000e+000 0.000000000000e+000
          4.204479229380e+000 6.412840757122e-001 0.000000000000e+000
          4.157376851380e+000 0.000000000000e+000 0.000000000000e+000
          5.192892237051e+000 7.280355562789e-001 0.000000000000e+000
          1.306630304579e+000 6.212843344151e-001 0.000000000000e+000
          1.050228457081e+000 0.000000000000e+000 0.000000000000e+000
          1.614006202528e+000 0.000000000000e+000 0.000000000000e+000
          1.266763055794e+001 1.554696422866e+001 0.000000000000e+000
          1.263589100638e+001 1.657720348306e+001 0.000000000000e+000
          1.174268578662e+001 1.633018318031e+001 0.000000000000e+000
          6.588835695415e+000 7.505681085529e+000 0.000000000000e+000
          6.456871838389e+000 6.658671683861e+000 0.000000000000e+000
          7.208099140752e+000 7.038822846307e+000 0.000000000000e+000
          4.412623338166e+000 9.138856431549e+000 0.000000000000e+000
          4.024185797397e+000 8.708923235630e+000 0.000000000000e+000
          4.601447447338e+000 8.507292699647e+000 0.000000000000e+000
          5.325995059827e-001 6.308307298123e+000 0.000000000000e+000
          0.000000000000e+000 6.666666666655e+000 0.000000000000e+000
          0.000000000000e+000 6.153846153835e+000 0.000000000000e+000
          3.986461521768e+000 8.146114708182e+000 0.000000000000e+000
          2.411603373059e+000 6.510912162016e+000 0.000000000000e+000
          1.807525763324e+000 6.938080373464e+000 0.000000000000e+000
          1.686779352680e+000 6.178928843543e+000 0.000000000000e+000
          2.510760620997e+000 7.229076682239e+000 0.000000000000e+000
          3.166991983438e+000 6.906135870389e+000 0.000000000000e+000
          3.452788915829e+000 6.276851216781e+000 0.000000000000e+000
          3.340122000742e+000 5.656365440432e+000 0.000000000000e+000
          4.047936562877e+000 5.873561587395e+000 0.000000000000e+000
          1.802463974828e+000 1.292744708026e+001 0.000000000000e+000
          1.383967161336e+000 1.330299552906e+001 0.000000000000e+000
          1.329690820161e+000 1.266495373033e+001 0.000000000000e+000
          2.267922292389e+000 1.431116835808e+001 0.000000000000e+000
          2.854613987538e+000 1.466581611369e+001 0.000000000000e+000
          2.339869278674e+000 1.493776402241e+001 0.000000000000e+000
          4.690956878046e+000 3.115726773737e+000 0.000000000000e+000
          4.014773718330e+000 2.850429494150e+000 0.000000000000e+000
          4.643493383296e+000 2.293565471327e+000 0.000000000000e+000
          5.186083944243e+000 1.661927139510e+000 0.000000000000e+000
          5.452965511439e+000 2.679881546544e+000 0.000000000000e+000
          5.360460104304e+000 3.539902157655e+000 0.000000000000e+000
          6.197986304192e+000 3.115706366113e+000 0.000000000000e+000
          7.929356606585e-001 1.634705420870e+001 0.000000000000e+000
          1.222819867503e+000 1.599517159419e+001 0.000000000000e+000
          1.215723647926e+000 1.546209040954e+001 0.000000000000e+000
          1.770601276021e+000 1.521217632514e+001 0.000000000000e+000
          1.242830150061e+000 1.493919370237e+001 0.000000000000e+000
          1.166444124506e+000 4.610115997312e+000 0.000000000000e+000
          1.851620547934e+000 4.486892013458e+000 0.000000000000e+000
          1.494152702314e+000 5.145235789232e+000 0.000000000000e+000
          1.353088107040e+000 4.090803091641e+000 0.000000000000e+000
          3.802567455935e+000 5.084697985980e+000 0.000000000000e+000
          1.014840185783e+000 5.494768572296e+000 0.000000000000e+000
          8.831064584820e-001 5.109311190608e+000 0.000000000000e+000
          1.727903958959e+000 1.618384478933e+001 0.000000000000e+000
          1.343261525342e+000 1.651800241408e+001 0.000000000000e+000
          3.308120627291e+000 8.593311644828e+000 0.000000000000e+000
[...]
      <PointData Scalars="LIQUID_PRESSURE">
        <DataArray type="Float64" Name="LIQUID_PRESSURE" format="ascii">
          1.000374136777e+006 1.000061900705e+006 1.000411935966e+006 9.998506593969e+005 9.999887967993e+005 1.000178088731e+006 1.000111133837e+006 1.000677233729e+006 1.000713451612e+006 1.000707372206e+006 1.000083802574e+006 1.000752575949e+006 9.997840411046e+005 1.000552487231e+006 9.999767955748e+005 1.000244291502e+006 1.000549524245e+006 9.998534866481e+005 1.000650200873e+006 1.000712429210e+006 1.000562693476e+006 1.000611661971e+006 1.000252985244e+006 1.000607393084e+006 1.000217764314e+006 1.000217033459e+006 1.000213947384e+006 1.000218362044e+006 1.000213187396e+006 1.000217161834e+006 1.000216973277e+006 1.000217740417e+006 1.000213874167e+006 1.000218372279e+006 1.000230720804e+006 1.000227150838e+006 1.000228689286e+006 1.000233881320e+006 1.000234308830e+006 1.000226112199e+006 1.000227204951e+006 1.000230858188e+006 1.000228645192e+006 1.000233663253e+006 1.000210901419e+006 1.000207699830e+006 1.000206416664e+006 1.000211269503e+006 1.000205089822e+006 1.000210155746e+006 1.000207602416e+006 1.000210891109e+006 1.000205636062e+006 1.000211216796e+006 1.000203934286e+006 1.000201652814e+006 1.000204385567e+006 1.000203530222e+006 1.000202708692e+006 1.000242442818e+006 1.000229184456e+006 1.000225677419e+006 1.000242058905e+006 1.000225925027e+006 1.000220199991e+006 1.000223827676e+006 1.000258703833e+006 1.000220560860e+006 1.000224947610e+006 1.000222007525e+006 1.000223743346e+006 1.000224942523e+006 1.000222001020e+006 1.000203670222e+006 1.000206111317e+006 1.000185512365e+006 1.000203730529e+006 1.000204389723e+006 1.000230092581e+006 1.000222382930e+006 1.000223040379e+006 1.000230083216e+006 1.000222395411e+006 1.000475645968e+006 1.000623396696e+006 1.000500483130e+006 1.000036673203e+006 9.998891200962e+005 9.998006317496e+005 1.000283627186e+006 1.000330417017e+006 1.000131446230e+006 1.000212825511e+006 1.000766494422e+006 1.000723244266e+006 1.000217539555e+006 1.000753627922e+006 1.000458326139e+006 1.000568280846e+006 1.000260549779e+006 1.000688725998e+006 1.000650828331e+006 1.000438324881e+006 1.000674530395e+006 1.000512349493e+006 1.000384158911e+006 1.000545845145e+006 9.998086362135e+005 9.998214522459e+005 9.997885490806e+005 1.000534692429e+006 1.000471044744e+006 9.999313854790e+005 9.998767201962e+005 1.000774872381e+006 1.000183525955e+006 1.000756762053e+006 1.000521917273e+006 1.000473396949e+006 1.000554626056e+006 1.000026077583e+006 9.998606158888e+005 9.998190525616e+005 1.000437279587e+006 1.000058392094e+006 9.997864984697e+005 9.997851694318e+005 1.000431069089e+006 9.997896481136e+005 9.997955545833e+005 1.000467671791e+006 1.000045716018e+006 9.998600200112e+005 1.000120019063e+006 9.998140575914e+005 9.999199590188e+005 1.000331288237e+006 9.998398624086e+005 9.997789338035e+005 1.000388713245e+006 9.997791097976e+005 9.999841806927e+005 1.000034872517e+006 9.998267019440e+005 1.000050317907e+006 9.998791057621e+005 9.999125088883e+005 1.000035019753e+006 1.000022006725e+006 1.000124932057e+006 1.000528453818e+006 1.000551948998e+006 1.000545833382e+006 9.998094753476e+005 1.000308418984e+006 1.000744719702e+006 1.000472595873e+006 1.000472277704e+006 1.000014661010e+006 9.998240469250e+005 1.000197959302e+006 1.000012526449e+006 9.998898993701e+005 9.999043344130e+005 9.999567906824e+005 1.000383796930e+006 1.000531772511e+006 1.000537279898e+006 1.000538982686e+006 1.000740883281e+006 1.000161606001e+006 1.000666293592e+006 1.000037387262e+006 9.998119210181e+005 1.000402447995e+006 9.998352735631e+005 1.000312823463e+006 1.000524801530e+006 1.000571134486e+006 9.997831467233e+005 1.000496832822e+006 1.000454862769e+006 1.000030665668e+006 1.000705961213e+006 1.000017792505e+006 1.000177795695e+006 9.998057067292e+005 9.998572836723e+005 1.000411106711e+006 1.000740180645e+006 1.000248164927e+006 1.000595828200e+006 1.000758222533e+006 1.000754440593e+006 9.998618374161e+005 1.000745927639e+006 1.000032434441e+006 1.000591116090e+006 9.999019068397e+005 9.998482677669e+005 1.000544221822e+006 1.000700244975e+006 1.000350957966e+006 9.997916644011e+005 9.997904060960e+005 9.997744367128e+005 1.000219978133e+006 9.998118074377e+005 9.998573887398e+005 9.999139133579e+005 9.998190592842e+005 1.000172559477e+006 1.000726007871e+006 1.000269028903e+006 1.000266428853e+006 1.000494615457e+006 1.000745008598e+006 9.998234659175e+005 1.000202967126e+006 9.998567291977e+005 1.000668350812e+006 1.000087785321e+006 1.000766551881e+006 9.998180636729e+005 1.000122309990e+006 9.998318973255e+005 1.000507544709e+006 1.000657083926e+006 9.999159171650e+005 1.000684244938e+006 9.997855732435e+005 9.998333772145e+005 1.000343140200e+006 9.998626696154e+005 1.000216157299e+006 1.000075579959e+006 1.000486595925e+006 1.000468354769e+006 9.997721934586e+005 1.000803055164e+006 1.000232094359e+006 1.000284368400e+006 1.000270946904e+006 1.000680440921e+006 1.000616405285e+006 1.000648865584e+006 1.000666394185e+006 1.000389054619e+006 1.000459799065e+006 1.000440833808e+006 9.998091101339e+005 1.000234085592e+006 1.000473014113e+006 1.000524985494e+006 1.000507574256e+006 1.000526968710e+006 1.000497652635e+006 1.000519857480e+006 1.000449185764e+006 1.000525120158e+006 1.000525907624e+006 1.000534317477e+006 1.000513906410e+006 1.000186910592e+006 1.000230371407e+006 1.000307457289e+006 1.000286861657e+006 1.000285102565e+006 1.000201570946e+006 1.000218097774e+006 1.000190458755e+006 1.000329580520e+006 1.000290192035e+006 1.000292943141e+006 1.000204261581e+006 1.000215682981e+006 1.000189928664e+006 1.000278960244e+006 1.000356751890e+006 1.000272462087e+006 1.000209270537e+006 1.000190948872e+006 1.000218316329e+006 1.000272956817e+006 1.000355757993e+006 1.000269488750e+006 1.000210254606e+006 1.000241591562e+006 1.000268992347e+006 1.000266435086e+006 1.000247003852e+006 1.000245816790e+006 1.000247309840e+006 1.000269004155e+006 1.000241602568e+006 1.000266424907e+006 1.000246994727e+006 1.000245822666e+006 1.000247305475e+006 1.000200429453e+006 1.000336464768e+006 1.000214994441e+006 1.000250243308e+006 1.000197459067e+006 1.000234969009e+006 1.000336459206e+006 1.000200455653e+006 1.000214975677e+006 1.000250233544e+006 1.000197458166e+006 1.000234970015e+006 1.000336473712e+006 1.000278061457e+006 1.000170792469e+006 1.000208034691e+006 1.000278027410e+006 1.000336407371e+006 1.000170786664e+006 1.000207705577e+006 1.000301211267e+006 1.000182333713e+006 1.000360974132e+006 1.000223403922e+006 1.000336132028e+006 1.000297169478e+006 1.000182254471e+006 1.000301200041e+006 1.000361106937e+006 1.000223423512e+006 1.000336135161e+006 1.000297171781e+006 1.000191200372e+006 1.000182460056e+006 1.000214783119e+006 1.000190481514e+006 1.000182822887e+006 1.000214617853e+006 1.000265085779e+006 1.000308610063e+006 1.000256991360e+006 1.000265094762e+006 1.000308579542e+006 1.000256958242e+006 1.000184595338e+006 1.000184615245e+006 1.000314114583e+006 1.000244081959e+006 1.000200933658e+006 1.000204858377e+006 1.000313556836e+006 1.000205042105e+006 1.000273124395e+006 1.000240033493e+006 1.000246867405e+006 1.000256808260e+006 1.000273121832e+006 1.000256806930e+006 1.000221734397e+006 1.000268516789e+006 1.000222595124e+006 1.000258948072e+006 1.000347261045e+006 1.000346718851e+006 1.000258444577e+006 1.000318962659e+006 1.000178420846e+006 1.000178396043e+006 1.000275457122e+006 1.000210657795e+006 1.000275463485e+006 1.000285365860e+006 1.000266880460e+006 1.000285359325e+006 1.000276898261e+006 1.000276945609e+006 1.000241505655e+006 1.000282839856e+006 1.000282830102e+006 1.000271990914e+006 1.000224241411e+006 1.000272252071e+006 1.000237190724e+006 1.000227048337e+006 1.000237579407e+006 1.000224220952e+006 1.000243861122e+006 1.000205297571e+006 1.000243647299e+006 1.000202557245e+006 9.999927685294e+005 1.000007015380e+006 1.000303638704e+006 1.000395890039e+006 1.000112813056e+006 1.000414157952e+006 1.000769160508e+006 1.000222540659e+006 1.000696150188e+006 1.000490875549e+006 1.000167698167e+006 1.000300257138e+006 1.000389414498e+006 9.999555493288e+005 1.001469494958e+006 9.996219920544e+005 1.001040070727e+006 1.000697028390e+006 1.000082111857e+006 1.000540113985e+006 1.000643418815e+006 1.000249245163e+006 1.000555546220e+006 9.997541808109e+005 1.000352717751e+006 1.000235891849e+006 1.000748424169e+006 1.000407724521e+006 1.000057303213e+006 1.000047936145e+006 1.000280924237e+006 1.000736361071e+006 1.000003772076e+006 1.000692216313e+006 1.000359715321e+006 1.000602213023e+006 9.999383957348e+005 1.000022434582e+006 1.000027657238e+006 1.000507240463e+006 9.999750299512e+005 1.000641914625e+006 1.000296445369e+006 1.000480363225e+006 1.000625444836e+006 1.000414472498e+006 1.000172138541e+006 1.000431268074e+006 1.000113006804e+006 9.997903202670e+005 1.000310181882e+006 1.000668776665e+006 1.000290265442e+006 9.999055633437e+005 9.998852256969e+005 1.000171665421e+006 1.000228219740e+006 1.000239148876e+006 1.000512923403e+006 1.000503117835e+006 1.000660226749e+006 1.000322555729e+006 1.000443311759e+006 9.999093502712e+005 1.000711860321e+006 9.998570279747e+005 1.000310534357e+006 1.000248611989e+006 1.000319146795e+006 1.000355571899e+006 9.998127771698e+005 9.999565299459e+005 1.000653725164e+006 9.998400294404e+005 9.999219850022e+005 1.000443677023e+006 1.000416008924e+006 9.999538142280e+005 9.999773122076e+005 9.999391830807e+005 1.000206986102e+006 9.999512712254e+005 1.000390272794e+006 1.000481886367e+006 1.000422991683e+006 9.999472715281e+005 1.000133252565e+006 1.000586750753e+006 1.000668702831e+006 1.000360495186e+006 1.000036954159e+006 1.000087083197e+006 9.998725541864e+005 9.997898605832e+005 1.000455196684e+006 1.000681584169e+006 9.997507526020e+005 9.998341226737e+005 1.000438322460e+006 1.000765523435e+006 1.000333785815e+006 9.998844996743e+005 1.000506432872e+006 1.000616053103e+006 1.000320778077e+006 9.999800374402e+005 1.000715781958e+006 1.000220326823e+006 1.000291227113e+006 1.000192266356e+006 1.000202447235e+006 9.998278291378e+005 9.999490034981e+005 1.000429036093e+006 1.000718443556e+006 1.000245018569e+006 9.998471866650e+005 1.000104211016e+006 1.000477090274e+006 1.000478795206e+006 1.000712777608e+006 9.999898422767e+005 9.998930817268e+005 1.000681938325e+006 1.000612199936e+006 1.000621541435e+006 1.000291897710e+006 9.997910200737e+005 1.000356070749e+006 1.000740649218e+006 1.000231758487e+006 1.000720558273e+006 1.000721537553e+006 1.000457378495e+006 9.998554323456e+005 1.000682938096e+006 1.000662023452e+006 9.997749416245e+005 9.999599000527e+005 1.000472474546e+006 1.000260920328e+006 9.999996949619e+005 1.000076537988e+006 1.000689045482e+006 1.000259706114e+006 1.000391615318e+006 1.000703331681e+006 9.999643252268e+005 1.000179506416e+006 1.000439156666e+006 1.000042644567e+006 1.000131003521e+006 1.000551964793e+006 9.999613311452e+005 1.000068976900e+006 9.999814674162e+005 1.000722132898e+006 1.000761742802e+006 9.998671576188e+005 9.999197169933e+005 1.000038286246e+006 1.000524170824e+006 1.000231146911e+006 1.000259122872e+006 1.000735772029e+006 1.000503471205e+006 1.000238781644e+006 1.000365720343e+006 1.000692867845e+006 1.000679914778e+006 1.000408149233e+006 1.000356908219e+006 9.999718073473e+005 1.000212328838e+006 9.999391784199e+005 1.000759245495e+006 9.997488520440e+005 1.000531813882e+006 1.000324060743e+006 1.000035214353e+006 9.998893835058e+005 1.000597185390e+006 9.998858845813e+005 9.997828389607e+005 1.000208037890e+006 1.000624481046e+006 1.000192479161e+006 1.000548197203e+006 1.000341045550e+006 1.000178289131e+006 1.000674237675e+006 9.999943164312e+005 9.997579804906e+005 1.000633081970e+006 1.000117586810e+006 1.000690472761e+006 9.999211591036e+005 1.000618173276e+006 1.000259970768e+006 9.997750880427e+005 1.000649736472e+006 1.000030056496e+006 1.000700285215e+006 9.998782795670e+005 1.000283668688e+006 1.000485774545e+006 9.998503179995e+005 9.998671024114e+005 1.000513337608e+006 1.000194761976e+006 1.000257685869e+006 1.000175195411e+006 1.000052599692e+006 1.000360222225e+006 1.000670847550e+006 1.000469662962e+006 9.999459272953e+005 1.000688218092e+006 1.000096459684e+006 9.998053106454e+005 1.000640213223e+006 1.000174490038e+006 1.000278967322e+006 1.000280830461e+006 1.000359716390e+006 1.000666014133e+006 1.000259903876e+006 1.000133636451e+006 1.000547994909e+006 9.998307256941e+005 1.000487310124e+006 1.000053451132e+006 1.000524573042e+006 1.000110501436e+006 1.000452953723e+006 1.000113261215e+006 1.000074088587e+006 9.974011359038e+005 1.000330364971e+006 1.000460116853e+006 9.997943535219e+005 9.998633704062e+005 1.000386153847e+006 9.998831988275e+005 1.000209483889e+006 1.000226588850e+006 1.000291284496e+006 1.000226305927e+006 1.000288523328e+006 9.998272216359e+005 1.000124391224e+006 9.998479295022e+005 9.998117690979e+005 1.000149325789e+006 1.000283071514e+006 1.000339442123e+006 1.000282818272e+006 1.000640158170e+006 1.000202697046e+006 1.000038536930e+006 1.000303203673e+006 1.000089230021e+006 9.998286645932e+005 1.000571859836e+006 1.000724452107e+006 9.998151952767e+005 9.997557159475e+005 1.000716538242e+006 9.997526241955e+005 1.000016067964e+006 1.000536299981e+006 1.000541912456e+006 1.000359538924e+006 1.000521636363e+006 1.000689312880e+006 1.000358052425e+006 1.000557636885e+006 1.000489651957e+006 1.000478367356e+006 9.999867320577e+005 1.000193002305e+006 1.000193279613e+006 1.000530777948e+006 1.000471030248e+006 1.000011063260e+006 1.000469615696e+006 1.000459738466e+006 1.000545673841e+006 1.000667812932e+006 1.000349018118e+006 9.998972284824e+005 1.000120106049e+006 1.000096210865e+006 1.000591395099e+006 1.000696241645e+006 1.000613517541e+006 1.000059461324e+006 1.000438099864e+006 1.000519963853e+006 1.000523819327e+006 1.000381142932e+006 1.000098726698e+006 1.000259435208e+006 1.000354723516e+006 1.000416145157e+006 1.000304757501e+006 1.000258003599e+006 1.000424533122e+006 1.000253821248e+006 1.000212874941e+006 1.000244767287e+006 1.000114369931e+006 1.000207372085e+006 1.000221298739e+006 1.000358871334e+006 1.000163975540e+006 1.000293134779e+006 1.000153259419e+006 1.000332275553e+006 1.000250482441e+006 1.000352854929e+006 1.000352244823e+006 1.000353331361e+006 1.000343389916e+006 1.000217592121e+006 1.000191325774e+006 1.000080767246e+006 1.000190361240e+006 1.000082569797e+006 1.000471657197e+006 1.000224633799e+006 1.000405431191e+006 1.000228024612e+006 1.000412798532e+006 1.000282541090e+006 1.000219879853e+006 1.000299266070e+006 1.000230782300e+006 1.000231759862e+006 1.000281629837e+006 1.000299688116e+006 1.000205687350e+006 1.000293477333e+006 1.000380924740e+006 1.000288253037e+006 1.000404747720e+006 1.000119014868e+006 1.000173354978e+006 1.000113497893e+006 1.000160771099e+006 1.000386438064e+006 1.000302113292e+006 1.000387325942e+006 1.000303999396e+006 1.000270916727e+006 1.000068494705e+006 1.000474177238e+006 1.000426079407e+006 1.000288367468e+006 1.000195831651e+006 1.000070115978e+006 1.000272073570e+006 1.000470039115e+006 1.000426711031e+006 1.000288892675e+006 1.000195969186e+006 1.000187248449e+006 1.000101039783e+006 1.000280656542e+006 1.000189935610e+006 1.000098306709e+006 1.000284673743e+006 1.000495051033e+006 1.000354412514e+006 1.000418464169e+006 1.000495721784e+006 1.000333901246e+006 1.000419862595e+006 9.999749146482e+005 1.000317592249e+006 9.999917355976e+005 9.999759414610e+005 1.000340430404e+006 1.000006668027e+006 1.000575868066e+006 1.000035863321e+006 1.000549716357e+006 1.000019579791e+006 1.000144202391e+006 1.000438861723e+006 1.000143802017e+006 1.000436749842e+006 1.000205532746e+006 1.000291215720e+006 1.000259349410e+006 1.000207269413e+006 1.000290589369e+006 1.000259744682e+006 1.000164339726e+006 1.000350841949e+006 1.000163962393e+006 1.000350069838e+006 1.000367485274e+006 1.000369261170e+006 1.000318036169e+006 1.000316894542e+006 1.000063951299e+006 1.000058586494e+006 1.000036693667e+006 1.000481765746e+006 9.999812721422e+005 1.000317445763e+006 1.000469097552e+006 1.000443398816e+006 1.000051268763e+006 1.000058334877e+006 1.000065958317e+006 1.000453392365e+006 1.000146277205e+006 1.000455506311e+006 1.000144919626e+006 1.000296388820e+006 1.000027812553e+006 1.000284067597e+006 1.000022753923e+006 1.000004516641e+006 1.000511526698e+006 1.000098414005e+006 9.998271679442e+005 1.000633851608e+006 1.000577629674e+006 1.000484630557e+006 1.000429748127e+006 1.000333058714e+006 1.000475389924e+006 1.000456983208e+006 1.000418409689e+006 1.000052173505e+006 1.000238413302e+006 9.999755898698e+005 1.000308244713e+006 1.000107811881e+006 9.999799638678e+005 1.000114200624e+006 1.000039372513e+006 1.000122681067e+006 1.000602462718e+006 1.000626377390e+006 1.000116439120e+006 1.000474543464e+006 1.000104662227e+006 1.000308534593e+006 1.000491694775e+006 1.000000000000e+006 1.000000000000e+006 1.000105868717e+006 1.000529623838e+006 1.000695123591e+006 1.000031930304e+006 1.000558674363e+006 1.000558805493e+006 9.998758112757e+005 1.000674611638e+006 1.000233917511e+006 1.000619667477e+006 1.000021518357e+006 9.999821404741e+005 9.999746581986e+005 9.998355669253e+005 1.000158691442e+006 1.000030186022e+006 1.000579786348e+006 1.000701229168e+006 1.000239784573e+006 1.000011398685e+006 1.000023792482e+006 1.000599748386e+006 1.000552022807e+006 1.000532394846e+006 1.000234244241e+006 1.000233241333e+006 1.000699697903e+006 1.000223594398e+006 1.000223727115e+006 1.000071595292e+006 1.000190404583e+006 1.000564416017e+006 1.000063840445e+006 9.999504564079e+005 9.998347856177e+005 1.000118727840e+006 1.000363494190e+006 1.000051625581e+006 1.000253940991e+006 9.999769023976e+005 1.000001993440e+006 9.999699645567e+005 1.000650881677e+006 1.000460537726e+006 1.000344404643e+006 1.000623933844e+006 1.000325348405e+006 1.000624167427e+006 1.000374928907e+006 1.000277705837e+006 1.000218205711e+006 1.000647375024e+006 1.000523283807e+006 9.998289473436e+005 1.000132600905e+006 1.000686036903e+006 1.000254453218e+006 1.000254297131e+006 1.000722185812e+006 1.000469046806e+006 1.000284644686e+006 1.000055219178e+006 1.000659853869e+006 1.000564221985e+006 9.998703887808e+005 1.000187568975e+006 1.000233789629e+006 1.000457682298e+006 1.000106512032e+006 1.000053778805e+006 1.000645291987e+006 1.000478098865e+006 1.000637290392e+006 1.000671568602e+006 1.000451066654e+006 9.998323988738e+005 9.999544749948e+005 1.000236394742e+006 1.000576155657e+006 1.000204843334e+006 1.000096230886e+006 9.998239709865e+005 1.000264258222e+006 1.000019062013e+006 1.000512759518e+006 1.000756810188e+006 1.000546865948e+006 1.000558807328e+006 1.000579617381e+006 1.000553292799e+006 1.000560354714e+006 1.000661369315e+006 1.000586592297e+006 1.000157551445e+006 1.000165321069e+006 1.000307638884e+006 1.000186829325e+006 1.000522542956e+006 1.000185754248e+006 9.997989437382e+005 9.999697392436e+005 1.000547060830e+006 1.000511488228e+006 1.000669375846e+006 1.000148477261e+006 1.000102582710e+006 1.000150952835e+006 1.000231269364e+006 1.000231134588e+006 1.000288753316e+006 1.000285532018e+006 1.000629352348e+006 1.000549190902e+006 1.000120194241e+006 1.000125914491e+006 1.000144115424e+006 1.000155234356e+006 1.000533434467e+006 1.000499165264e+006 
        </DataArray>
        <DataArray type="Float64" Name="MEAN_PRESSURE" format="ascii">