<?xml version="1.0"?>
<VTKFile type="UnstructuredGrid" version="0.1" byte_order="LittleEndian">
  <UnstructuredGrid>
    <Piece NumberOfPoints="963" NumberOfCells="1758">
      <Points>
        <DataArray type="Float64" NumberOfComponents="3" format="ascii">
          1.600262034769e+002 1.257989505921e+001 0.000000000000e+000
          1.635346199106e+002 2.000000000000e+001 0.000000000000e+000
          1.554515002484e+002 2.000000000000e+001 0.000000000000e+000
          3.459306441575e+000 1.667621982453e+001 0.000000000000e+000
          3.062266634850e+000 1.705413688405e+001 0.000000000000e+000
          2.873380769063e+000 1.650527725632e+001 0.000000000000e+000
          1.514088444034e+000 1.865189448105e+001 0.000000000000e+000
          1.967902677551e+000 1.834103489750e+001 0.000000000000e+000
          2.034564522234e+000 1.890806711991e+001 0.000000000000e+000
          2.478275273162e+000 1.702762299110e+001 0.000000000000e+000
          2.952621433467e+000 1.774357373580e+001 0.000000000000e+000
          2.237893542067e+000 1.782457469610e+001 0.000000000000e+000
          3.313583922780e+000 3.274674552047e+000 0.000000000000e+000
          2.561432712787e+000 3.156040447793e+000 0.000000000000e+000
          3.047531989640e+000 2.714594415171e+000 0.000000000000e+000
          2.750804692284e+000 3.936058190693e+000 0.000000000000e+000
          2.599039179818e+000 2.451529939148e+000 0.000000000000e+000
          3.139686649742e+000 2.186924052088e+000 0.000000000000e+000
          1.919984553221e+000 3.358010194268e+000 0.000000000000e+000
          1.960900304591e+000 2.773319745251e+000 0.000000000000e+000
          1.894565400391e+000 1.733316857565e+001 0.000000000000e+000
          0.000000000000e+000 1.538461538461e+001 0.000000000000e+000
          5.816229249735e-001 1.567919247147e+001 0.000000000000e+000
          0.000000000000e+000 1.589743589743e+001 0.000000000000e+000
          9.766405669483e+001 2.000000000000e+001 0.000000000000e+000
          1.010672711393e+002 1.500000000000e+001 0.000000000000e+000
          1.029329279907e+002 2.000000000000e+001 0.000000000000e+000
          9.588503785413e+001 1.500000000000e+001 0.000000000000e+000
          1.039231647117e+002 1.000000000000e+001 0.000000000000e+000
          9.860830811271e+001 1.000000000000e+001 0.000000000000e+000
          1.010672711397e+002 5.000000000000e+000 0.000000000000e+000
          9.766405669557e+001 0.000000000000e+000 0.000000000000e+000
          1.029329279915e+002 0.000000000000e+000 0.000000000000e+000
          9.588503785449e+001 5.000000000000e+000 0.000000000000e+000
          7.892434178002e+001 2.000000000000e+001 0.000000000000e+000
          8.173808356948e+001 1.500000000000e+001 0.000000000000e+000
          8.328058896910e+001 2.000000000000e+001 0.000000000000e+000
          7.679274808893e+001 1.514423393202e+001 0.000000000000e+000
          7.970503892166e+001 1.000000000000e+001 0.000000000000e+000
          8.409930620613e+001 1.000000000000e+001 0.000000000000e+000
          8.173808356980e+001 5.000000000000e+000 0.000000000000e+000
          7.892434178065e+001 0.000000000000e+000 0.000000000000e+000
          8.328058896976e+001 0.000000000000e+000 0.000000000000e+000
          7.679274808925e+001 4.855766067979e+000 0.000000000000e+000
          1.084583939765e+002 2.000000000000e+001 0.000000000000e+000
          1.122011528880e+002 1.500000000000e+001 0.000000000000e+000
          1.142529496098e+002 2.000000000000e+001 0.000000000000e+000
          1.065018792644e+002 1.500000000000e+001 0.000000000000e+000
          1.153419838410e+002 1.000000000000e+001 0.000000000000e+000
          1.094968549120e+002 1.000000000000e+001 0.000000000000e+000
          1.122011528884e+002 5.000000000000e+000 0.000000000000e+000
          1.084583939773e+002 0.000000000000e+000 0.000000000000e+000
          1.142529496106e+002 0.000000000000e+000 0.000000000000e+000
          1.065018792648e+002 5.000000000000e+000 0.000000000000e+000
          1.181779812237e+002 1.500000000000e+001 0.000000000000e+000
          1.203297004775e+002 2.000000000000e+001 0.000000000000e+000
          1.214717707847e+002 1.000000000000e+001 0.000000000000e+000
          1.181779812242e+002 5.000000000000e+000 0.000000000000e+000
          1.203297004784e+002 0.000000000000e+000 0.000000000000e+000
          7.477039199538e+001 2.000000000000e+001 0.000000000000e+000
          7.551483469771e+001 1.000000000000e+001 0.000000000000e+000
          7.296959467356e+001 1.385646386579e+001 0.000000000000e+000
          7.477039199599e+001 0.000000000000e+000 0.000000000000e+000
          7.296959467379e+001 6.143536134207e+000 0.000000000000e+000
          6.918477198508e+001 1.366665532880e+001 0.000000000000e+000
          6.746477463053e+001 1.000000000000e+001 0.000000000000e+000
          7.151921701478e+001 1.000000000000e+001 0.000000000000e+000
          6.918477198529e+001 6.333344671202e+000 0.000000000000e+000
          9.263986346551e+001 2.000000000000e+001 0.000000000000e+000
          9.094345943471e+001 1.500000000000e+001 0.000000000000e+000
          9.354026529380e+001 1.000000000000e+001 0.000000000000e+000
          9.263986346623e+001 0.000000000000e+000 0.000000000000e+000
          9.094345943506e+001 5.000000000000e+000 0.000000000000e+000
          1.244344522558e+002 1.503312574389e+001 0.000000000000e+000
          1.267023895482e+002 2.000000000000e+001 0.000000000000e+000
          1.285510028831e+002 1.020485663255e+001 0.000000000000e+000
          1.244344522563e+002 5.033125743893e+000 0.000000000000e+000
          1.267023895491e+002 0.000000000000e+000 0.000000000000e+000
          8.623136018348e+001 1.500000000000e+001 0.000000000000e+000
          8.784898578901e+001 2.000000000000e+001 0.000000000000e+000
          8.870757443665e+001 1.000000000000e+001 0.000000000000e+000
          8.623136018382e+001 5.000000000000e+000 0.000000000000e+000
          8.784898578969e+001 0.000000000000e+000 0.000000000000e+000
          4.872472752737e+000 0.000000000000e+000 0.000000000000e+000
          4.204479229380e+000 6.412840757122e-001 0.000000000000e+000
          4.157376851380e+000 0.000000000000e+000 0.000000000000e+000
          5.192892237051e+000 7.280355562789e-001 0.000000000000e+000
          1.306630304579e+000 6.212843344151e-001 0.000000000000e+000
          1.050228457081e+000 0.000000000000e+000 0.000000000000e+000
          1.614006202528e+000 0.000000000000e+000 0.000000000000e+000
          1.266763055794e+001 1.554696422866e+001 0.000000000000e+000
          1.263589100638e+001 1.657720348306e+001 0.000000000000e+000
          1.174268578662e+001 1.633018318031e+001 0.000000000000e+000
          6.588835695415e+000 7.505681085529e+000 0.000000000000e+000
          6.456871838389e+000 6.658671683861e+000 0.000000000000e+000
          7.208099140752e+000 7.038822846307e+000 0.000000000000e+000
          4.412623338166e+000 9.138856431549e+000 0.000000000000e+000
          4.024185797397e+000 8.708923235630e+000 0.000000000000e+000
          4.601447447338e+000 8.507292699647e+000 0.000000000000e+000
          5.325995059827e-001 6.308307298123e+000 0.000000000000e+000
          0.000000000000e+000 6.666666666655e+000 0.000000000000e+000
          0.000000000000e+000 6.153846153835e+000 0.000000000000e+000
          3.986461521768e+000 8.146114708182e+000 0.000000000000e+000
          2.411603373059e+000 6.510912162016e+000 0.000000000000e+000
          1.807525763324e+000 6.938080373464e+000 0.000000000000e+000
          1.686779352680e+000 6.178928843543e+000 0.000000000000e+000
          2.510760620997e+000 7.229076682239e+000 0.000000000000e+000
          3.166991983438e+000 6.906135870389e+000 0.000000000000e+000
          3.452788915829e+000 6.276851216781e+000 0.000000000000e+000
          3.340122000742e+000 5.656365440432e+000 0.000000000000e+000
          4.047936562877e+000 5.873561587395e+000 0.000000000000e+000
          1.802463974828e+000 1.292744708026e+001 0.000000000000e+000
          1.383967161336e+000 1.330299552906e+001 0.000000000000e+000
          1.329690820161e+000 1.266495373033e+001 0.000000000000e+000
          2.267922292389e+000 1.431116835808e+001 0.000000000000e+000
          2.854613987538e+000 1.466581611369e+001 0.000000000000e+000
          2.339869278674e+000 1.493776402241e+001 0.000000000000e+000
          4.690956878046e+000 3.115726773737e+000 0.000000000000e+000
          4.014773718330e+000 2.850429494150e+000 0.000000000000e+000
          4.643493383296e+000 2.293565471327e+000 0.000000000000e+000
          5.186083944243e+000 1.661927139510e+000 0.000000000000e+000
          5.452965511439e+000 2.679881546544e+000 0.000000000000e+000
          5.360460104304e+000 3.539902157655e+000 0.000000000000e+000
          6.197986304192e+000 3.115706366113e+000 0.000000000000e+000
          7.929356606585e-001 1.634705420870e+001 0.000000000000e+000
          1.222819867503e+000 1.599517159419e+001 0.000000000000e+000
          1.215723647926e+000 1.546209040954e+001 0.000000000000e+000
          1.770601276021e+000 1.521217632514e+001 0.000000000000e+000
          1.242830150061e+000 1.493919370237e+001 0.000000000000e+000
          1.166444124506e+000 4.610115997312e+000 0.000000000000e+000
          1.851620547934e+000 4.486892013458e+000 0.000000000000e+000
          1.494152702314e+000 5.145235789232e+000 0.000000000000e+000
          1.353088107040e+000 4.090803091641e+000 0.000000000000e+000
          3.802567455935e+000 5.084697985980e+000 0.000000000000e+000
          1.014840185783e+000 5.494768572296e+000 0.000000000000e+000
          8.831064584820e-001 5.109311190608e+000 0.000000000000e+000
          1.727903958959e+000 1.618384478933e+001 0.000000000000e+000
          1.343261525342e+000 1.651800241408e+001 0.000000000000e+000
          3.308120627291e+000 8.593311644828e+000 0.000000000000e+000
[...]
      <PointData Scalars="LIQUID_PRESSURE">
        <DataArray type="Float64" Name="LIQUID_PRESSURE" format="ascii">
          1.024958907361e+006 1.022776371354e+006 1.027855604675e+006 1.111807763733e+006 1.111862824397e+006 1.111987997479e+006 1.112096735445e+006 1.112607487357e+006 1.112648244553e+006 1.112496963773e+006 1.111903296866e+006 1.112627187477e+006 1.111716908245e+006 1.112375541316e+006 1.111838040949e+006 1.112099096643e+006 1.112340176380e+006 1.111754240273e+006 1.112590209582e+006 1.112652205550e+006 1.112520845797e+006 1.112291241353e+006 1.111865064966e+006 1.112279959642e+006 1.073805931988e+006 1.071225664483e+006 1.069883252271e+006 1.074761325661e+006 1.069150538190e+006 1.073149880713e+006 1.071226954519e+006 1.073807009523e+006 1.069880248327e+006 1.074761099631e+006 1.086817848061e+006 1.084878699779e+006 1.083834337856e+006 1.088055214282e+006 1.086359993296e+006 1.083134385425e+006 1.084878943249e+006 1.086818894421e+006 1.083834476144e+006 1.088056771327e+006 1.065236331233e+006 1.062379515798e+006 1.060665426736e+006 1.066730302979e+006 1.059416887887e+006 1.064594558890e+006 1.062394593488e+006 1.065208139960e+006 1.060738923670e+006 1.066717550224e+006 1.057759711043e+006 1.054704338372e+006 1.053878156160e+006 1.057632807123e+006 1.054500904727e+006 1.089309124678e+006 1.088683229829e+006 1.090238174747e+006 1.089310020333e+006 1.090236955969e+006 1.092137260996e+006 1.093653884535e+006 1.091368675642e+006 1.092127627120e+006 1.077877833514e+006 1.078644444556e+006 1.077073202532e+006 1.077877654161e+006 1.078644425302e+006 1.051594281336e+006 1.050796746254e+006 1.048804451394e+006 1.052244009664e+006 1.050400583993e+006 1.082230163861e+006 1.080474407731e+006 1.080298683229e+006 1.082230169218e+006 1.080474383244e+006 1.112055309708e+006 1.112450206576e+006 1.112365246564e+006 1.111726991535e+006 1.111857681546e+006 1.111681222037e+006 1.112281023944e+006 1.111467469527e+006 1.111332527916e+006 1.111446083477e+006 1.112316827441e+006 1.112337307463e+006 1.111758985683e+006 1.112375332101e+006 1.112286012178e+006 1.112228238901e+006 1.111839383911e+006 1.112197044183e+006 1.112170197248e+006 1.112259941917e+006 1.112474036153e+006 1.112447803927e+006 1.112358380248e+006 1.112332225568e+006 1.111742600521e+006 1.111827899776e+006 1.111732164444e+006 1.112343488899e+006 1.112418875315e+006 1.111915863779e+006 1.111861573703e+006 1.112594473303e+006 1.111966868454e+006 1.112534697201e+006 1.112126951761e+006 1.112258912040e+006 1.112189195625e+006 1.111710568983e+006 1.111611366111e+006 1.111590143717e+006 1.112146985214e+006 1.111721919006e+006 1.111703281990e+006 1.111714129192e+006 1.112387872509e+006 1.111742139752e+006 1.111697059720e+006 1.112488582176e+006 1.112064808730e+006 1.111848140446e+006 1.112070280525e+006 1.111656451568e+006 1.111649793383e+006 1.112294614914e+006 1.111805020722e+006 1.111755106900e+006 1.112189834002e+006 1.111748672381e+006 1.111708092859e+006 1.111719460479e+006 1.111797265192e+006 1.111737604504e+006 1.111658789663e+006 1.111932906927e+006 1.111861879370e+006 1.111719512869e+006 1.111958745392e+006 1.112337852220e+006 1.112113678142e+006 1.112284972938e+006 1.111770285750e+006 1.112290539628e+006 1.112660947498e+006 1.112285054606e+006 1.112048809549e+006 1.111771800865e+006 1.111698574126e+006 1.111998459402e+006 1.112025813850e+006 1.111896184924e+006 1.111661946322e+006 1.111640564112e+006 1.112329374484e+006 1.112266589866e+006 1.112105269820e+006 1.112264801809e+006 1.112559727605e+006 1.112115207257e+006 1.112453620282e+006 1.112028031254e+006 1.111677110531e+006 1.112209485783e+006 1.111803615594e+006 1.112112412662e+006 1.112061455937e+006 1.112222977096e+006 1.111629462982e+006 1.112488578470e+006 1.112433306968e+006 1.111883351782e+006 1.112498679852e+006 1.111694533834e+006 1.111782182650e+006 1.111761946325e+006 1.111834085128e+006 1.112378502334e+006 1.112596863935e+006 1.112015096864e+006 1.112126530247e+006 1.112595743878e+006 1.112586520575e+006 1.111618771504e+006 1.112549171005e+006 1.112025728172e+006 1.112389587308e+006 1.111851436226e+006 1.111841383381e+006 1.112366613958e+006 1.112633704057e+006 1.112343050490e+006 1.111750528421e+006 1.111627824034e+006 1.111770239956e+006 1.112211873364e+006 1.111753757809e+006 1.111771890396e+006 1.111902816937e+006 1.111640180661e+006 1.112181542922e+006 1.112621220549e+006 1.095038744613e+006 1.095042548547e+006 1.112264060837e+006 1.112586154210e+006 1.111577481889e+006 1.111892118351e+006 1.111569536761e+006 1.112124820761e+006 1.112049956950e+006 1.112434917160e+006 1.111681938298e+006 1.112104248823e+006 1.111661202083e+006 1.112462837792e+006 1.112412986137e+006 1.111697901322e+006 1.112603754533e+006 1.111703651224e+006 1.111757395869e+006 1.112131889238e+006 1.111857992338e+006 1.111797629696e+006 1.111993523379e+006 1.112460257510e+006 1.112464962498e+006 1.111697507683e+006 1.112679237974e+006 1.112230395415e+006 1.111827558696e+006 1.111861091834e+006 1.112226416872e+006 1.112234038939e+006 1.112224544122e+006 1.112220213762e+006 1.111922508529e+006 1.112110388572e+006 1.111950886982e+006 1.111646586425e+006 1.111789038162e+006 1.112147475170e+006 1.112157516557e+006 1.112270680558e+006 1.112283023048e+006 1.112025355882e+006 1.112266788641e+006 1.111968658668e+006 1.112236788777e+006 1.112102761617e+006 1.112292654191e+006 1.112282642122e+006 1.097139422517e+006 1.095911007575e+006 1.095925169683e+006 1.098103030920e+006 1.095727274073e+006 1.097018730441e+006 1.095804696759e+006 1.097186935344e+006 1.095938454100e+006 1.098128197685e+006 1.095756811993e+006 1.097037769186e+006 1.100257547620e+006 1.099136670046e+006 1.098795859014e+006 1.101264863262e+006 1.098927974988e+006 1.099973657608e+006 1.099133973187e+006 1.100263652183e+006 1.098779694374e+006 1.101266565650e+006 1.098922734143e+006 1.099976280220e+006 1.106843710321e+006 1.106527056507e+006 1.106134238827e+006 1.107171948538e+006 1.106087126079e+006 1.106805966659e+006 1.106527189784e+006 1.106843885794e+006 1.106134313185e+006 1.107172124514e+006 1.106087205551e+006 1.106806098232e+006 1.105295110249e+006 1.105220594530e+006 1.104552269629e+006 1.105805945504e+006 1.104368198986e+006 1.105326180242e+006 1.105220572925e+006 1.105295263417e+006 1.104552127982e+006 1.105805975226e+006 1.104368130322e+006 1.105326197794e+006 1.108610762746e+006 1.108253866775e+006 1.107821533533e+006 1.108626250137e+006 1.108253565191e+006 1.108610658471e+006 1.107821471945e+006 1.108625399467e+006 1.103943231376e+006 1.102864384893e+006 1.102983438190e+006 1.103854867192e+006 1.102870787616e+006 1.103844564761e+006 1.102864167865e+006 1.103942925236e+006 1.102983059001e+006 1.103854652184e+006 1.102870576130e+006 1.103844295333e+006 1.101283023639e+006 1.101591404990e+006 1.101400300156e+006 1.101281695585e+006 1.101590313856e+006 1.101399355393e+006 1.107517812354e+006 1.107924780143e+006 1.107387807515e+006 1.107517995014e+006 1.107924870575e+006 1.107387857187e+006 1.107723454481e+006 1.107723039336e+006 1.101127274496e+006 1.101808973719e+006 1.100277307310e+006 1.102041266766e+006 1.101126957047e+006 1.102040893035e+006 1.105975828311e+006 1.106251643303e+006 1.105568967058e+006 1.106627296728e+006 1.105975848958e+006 1.106627352138e+006 1.099594176245e+006 1.099391963867e+006 1.099596180814e+006 1.108421547880e+006 1.108672501172e+006 1.108674260785e+006 1.108423108713e+006 1.102992047493e+006 1.103061962241e+006 1.103061965725e+006 1.105139563243e+006 1.104698304353e+006 1.105139584740e+006 1.104338345139e+006 1.103956578874e+006 1.104338223013e+006 1.107786144965e+006 1.107786181350e+006 1.106942061395e+006 1.107348757299e+006 1.107348831022e+006 1.098404720373e+006 1.097270445111e+006 1.098402418215e+006 1.107633044381e+006 1.096095976003e+006 1.095362918979e+006 1.096098304708e+006 1.093825221030e+006 1.093524570646e+006 1.093764089947e+006 1.093487763883e+006 1.111598584170e+006 1.111669623346e+006 1.111824656184e+006 1.111908430341e+006 1.111990316805e+006 1.112223258163e+006 1.112608650980e+006 1.112035097231e+006 1.112610349320e+006 1.112099211565e+006 1.111848681608e+006 1.112288637833e+006 1.111919098323e+006 1.111792260314e+006 1.029706965352e+006 1.032638520918e+006 1.027810553143e+006 1.112249987032e+006 1.111733133464e+006 1.112061604199e+006 1.112245438354e+006 1.112158657905e+006 1.112373211490e+006 1.111644478581e+006 1.112234077163e+006 1.112223083489e+006 1.112589192203e+006 1.112365644301e+006 1.111652556772e+006 1.111705406058e+006 1.111845938245e+006 1.112570303740e+006 1.111871090939e+006 1.112225280766e+006 1.111900557030e+006 1.112213842492e+006 1.111695079452e+006 1.111612964345e+006 1.111641023207e+006 1.112030469589e+006 1.111694867479e+006 1.112236543458e+006 1.111943709491e+006 1.111828272626e+006 1.112096068087e+006 1.111962371435e+006 1.111762355685e+006 1.112317055485e+006 1.112114127367e+006 1.111800168162e+006 1.111963513322e+006 1.112066127864e+006 1.111622195553e+006 1.111359828591e+006 1.111887229571e+006 1.112011039758e+006 1.111544916468e+006 1.111444241787e+006 1.111761560654e+006 1.111998979128e+006 1.112231000551e+006 1.111556005406e+006 1.111760375261e+006 1.111302118855e+006 1.112412590257e+006 1.111661406301e+006 1.112034477019e+006 1.111224654101e+006 1.111344158724e+006 1.112302083138e+006 1.111745267711e+006 1.111622257261e+006 1.112210923158e+006 1.111519625952e+006 1.111525919742e+006 1.111951484326e+006 1.111987787850e+006 1.111725692275e+006 1.111501035594e+006 1.111485450402e+006 1.111527789031e+006 1.111208745201e+006 1.111533916235e+006 1.111839525966e+006 1.111611312451e+006 1.111298299836e+006 1.111406050805e+006 1.111619822006e+006 1.112471301871e+006 1.112298477242e+006 1.111485496562e+006 1.111549257944e+006 1.111649001311e+006 1.111742853437e+006 1.112060090493e+006 1.112325152342e+006 1.111630571492e+006 1.111638916232e+006 1.112219995802e+006 1.112615658051e+006 1.112037608518e+006 1.111657676950e+006 1.112015944592e+006 1.112013372701e+006 1.111704112370e+006 1.111622646745e+006 1.112050058350e+006 1.111609162370e+006 1.111861795320e+006 1.112034180018e+006 1.112023919366e+006 1.111607059788e+006 1.111631920364e+006 1.112042278196e+006 1.112236284141e+006 1.111908689235e+006 1.111607084304e+006 1.111531105340e+006 1.111682415742e+006 1.111756427097e+006 1.112477912956e+006 1.111979771284e+006 1.111590583552e+006 1.111942329645e+006 1.112261220441e+006 1.111824454105e+006 1.111723319703e+006 1.111628550976e+006 1.111883656884e+006 1.112334152031e+006 1.111859234564e+006 1.112359985275e+006 1.112197110454e+006 1.112129450492e+006 1.111554152508e+006 1.112103302108e+006 1.112577845860e+006 1.111745612421e+006 1.111799449247e+006 1.112341129889e+006 1.111785133468e+006 1.111678317541e+006 1.111709655896e+006 1.112233809368e+006 1.111887075687e+006 1.112350592334e+006 1.112499785119e+006 1.111528633566e+006 1.111626191148e+006 1.111875762817e+006 1.111557425077e+006 1.111898688559e+006 1.111769746118e+006 1.111222993913e+006 1.111325861823e+006 1.111780875099e+006 1.112458188452e+006 1.112644754874e+006 1.111462943655e+006 1.111394335484e+006 1.111455645254e+006 1.111811513043e+006 1.111667815337e+006 1.111691409683e+006 1.112618469049e+006 1.112499303518e+006 1.112072095898e+006 1.111715969892e+006 1.111842380417e+006 1.112216719188e+006 1.112112429957e+006 1.112066444911e+006 1.111500025838e+006 1.111586719635e+006 1.111385385811e+006 1.112632925800e+006 1.111636176239e+006 1.112112609599e+006 1.112236817952e+006 1.112003016083e+006 1.111416152924e+006 1.111921944787e+006 1.111647919997e+006 1.111656665237e+006 1.111788735847e+006 1.112057801803e+006 1.111654013800e+006 1.111917749348e+006 1.112100458644e+006 1.111725432352e+006 1.112322884599e+006 1.111497117990e+006 1.111513858466e+006 1.112467630423e+006 1.111961408902e+006 1.112554267229e+006 1.111633929592e+006 1.111818831002e+006 1.112003890127e+006 1.111716241598e+006 1.112008391442e+006 1.111457769326e+006 1.111901615748e+006 1.111752094777e+006 1.111852537620e+006 1.112018993708e+006 1.111372364782e+006 1.111391598044e+006 1.111792062621e+006 1.017476913158e+006 1.015292091931e+006 1.011925058383e+006 1.111742045545e+006 1.111896796333e+006 1.112472552985e+006 1.112286157684e+006 1.111852901917e+006 1.112291650758e+006 1.111754613527e+006 1.111798999479e+006 1.112199013456e+006 1.111812601485e+006 1.092334308231e+006 1.092353863895e+006 1.111897210391e+006 1.112220831995e+006 1.112230734197e+006 1.111840198632e+006 1.111856886374e+006 1.111665391663e+006 1.111949505064e+006 1.111731439826e+006 1.112092827093e+006 1.112097426550e+006 1.111702437212e+006 1.111603668225e+006 1.111678285039e+006 1.024799233962e+006 1.022765429785e+006 1.112283288595e+006 1.111642280252e+006 1.111700669163e+006 1.112067611066e+006 1.111615783822e+006 1.111816527156e+006 1.108993339927e+006 1.108942013744e+006 1.108987831554e+006 1.108938783849e+006 1.111802485906e+006 1.111752043609e+006 1.111534105692e+006 1.111648179314e+006 1.108532644217e+006 1.108605034961e+006 1.108430567682e+006 1.108602714521e+006 1.111802548168e+006 1.111421006741e+006 1.112030750150e+006 1.111687764013e+006 1.112045958864e+006 1.111762175395e+006 1.112399884605e+006 1.112399215444e+006 1.111674747236e+006 1.111588504790e+006 1.112608032471e+006 1.111730484753e+006 1.111306608357e+006 1.111739838111e+006 1.020698369442e+006 1.017474389356e+006 1.112062552326e+006 1.112631871347e+006 1.112285097164e+006 1.112367692712e+006 1.112031123781e+006 1.112014284052e+006 1.111585310579e+006 1.091267425436e+006 1.091252537261e+006 1.111582524192e+006 1.112120267014e+006 1.110987154552e+006 1.111393359938e+006 1.111272461772e+006 1.111811615944e+006 1.112407923107e+006 1.112222114379e+006 1.111154429745e+006 1.007225893635e+006 1.006104016751e+006 1.111576560916e+006 1.112228353584e+006 1.112211292020e+006 1.111378110949e+006 1.112183695459e+006 1.112083530756e+006 1.112263568930e+006 1.111566664026e+006 1.109163720755e+006 1.109059678260e+006 1.108929824704e+006 1.109716813608e+006 1.109512479153e+006 1.109041281635e+006 1.109740990798e+006 1.109467753199e+006 1.109688472797e+006 1.109837617979e+006 1.109609303217e+006 1.109839498167e+006 1.109765591624e+006 1.110003281323e+006 1.110003039965e+006 1.110093036768e+006 1.110020657164e+006 1.110124223115e+006 1.110186123251e+006 1.110427269462e+006 1.110404974914e+006 1.110423825734e+006 1.110405068924e+006 1.110483826917e+006 1.110564772017e+006 1.110398303604e+006 1.110565353084e+006 1.110396578457e+006 1.110966681397e+006 1.110862049551e+006 1.110873177388e+006 1.110862996333e+006 1.110871367742e+006 1.109191605557e+006 1.109158166359e+006 1.109459861260e+006 1.109545978317e+006 1.109155866731e+006 1.109190808545e+006 1.109447145977e+006 1.109524273185e+006 1.109910949490e+006 1.110112199071e+006 1.109924716828e+006 1.110127380977e+006 1.110048500315e+006 1.110175491095e+006 1.110047252367e+006 1.110179726313e+006 1.110465438806e+006 1.110543249761e+006 1.110466699323e+006 1.110536762346e+006 1.110129982156e+006 1.110150954013e+006 1.110104508060e+006 1.110527040383e+006 1.109928772198e+006 1.110315839261e+006 1.110149162672e+006 1.110127760062e+006 1.110099658396e+006 1.110523971092e+006 1.109928964543e+006 1.110315796103e+006 1.110395212283e+006 1.110534062318e+006 1.110518295555e+006 1.110388271807e+006 1.110522643787e+006 1.110514318544e+006 1.110955757691e+006 1.110884477709e+006 1.110853752551e+006 1.110945307794e+006 1.110882679669e+006 1.110850668261e+006 1.110694553400e+006 1.111005124111e+006 1.110659643784e+006 1.110707348130e+006 1.111068387265e+006 1.110702301626e+006 1.111247818531e+006 1.110947951341e+006 1.111248995961e+006 1.110989798157e+006 1.110536837193e+006 1.110905073189e+006 1.110542531870e+006 1.110890090565e+006 1.109280419126e+006 1.109045825780e+006 1.109190936614e+006 1.109279903596e+006 1.109046335201e+006 1.109191403672e+006 1.109577171240e+006 1.109645325251e+006 1.109573068112e+006 1.109646655943e+006 1.110188089626e+006 1.110191891380e+006 1.110414659885e+006 1.110409824865e+006 1.110338962112e+006 1.110318774039e+006 1.111454713638e+006 1.111876742487e+006 1.111464927953e+006 1.111895378339e+006 1.110902038389e+006 1.110884258017e+006 1.111096601804e+006 1.111111820586e+006 1.110849608351e+006 1.111205562066e+006 1.110854876676e+006 1.111178010993e+006 1.110828695266e+006 1.110892482027e+006 1.110728223583e+006 1.110880757041e+006 1.110708943298e+006 1.110794236653e+006 1.111864358116e+006 1.110882144284e+006 1.111408943386e+006 1.111909809436e+006 1.111592418116e+006 1.111611068606e+006 1.111189281649e+006 1.111244614559e+006 1.111227156728e+006 1.111201515720e+006 1.111204059460e+006 1.111040260395e+006 1.111206269121e+006 1.110919640752e+006 1.111173354140e+006 1.111129575813e+006 1.111045707728e+006 1.111152423737e+006 1.111116791534e+006 1.111049117876e+006 1.111632685850e+006 1.112158161960e+006 1.111546711459e+006 1.111575768542e+006 1.111884892743e+006 1.111858923506e+006 1.111555752139e+006 1.000000000000e+006 1.000000000000e+006 1.006103801141e+006 1.111973340266e+006 1.112311418777e+006 1.111885458628e+006 1.112200306547e+006 1.112117497241e+006 1.111859267460e+006 1.112210339294e+006 1.111948617839e+006 1.112193321406e+006 1.111691010222e+006 1.111270041097e+006 1.111247373702e+006 1.111862026741e+006 1.111857237196e+006 1.111350322678e+006 1.111589483566e+006 1.112224466277e+006 1.111467850221e+006 1.111263413955e+006 1.111489813849e+006 1.111794223864e+006 1.111274014192e+006 1.112039167323e+006 1.090323036982e+006 1.090327202517e+006 1.112448132519e+006 1.108144400012e+006 1.108145055744e+006 1.111214913654e+006 1.111832903399e+006 1.112147893988e+006 1.111094208878e+006 1.111785925706e+006 1.111606007573e+006 1.112104988677e+006 1.111216197803e+006 1.111048857069e+006 1.111211661643e+006 1.111641862846e+006 1.036276354055e+006 1.035312135671e+006 1.112082416170e+006 1.111665820391e+006 1.037599502618e+006 1.112198527559e+006 1.111843970134e+006 1.112204200514e+006 1.111367195636e+006 1.111833297071e+006 1.011924363744e+006 1.112420522844e+006 1.112349869463e+006 1.111697643539e+006 1.111297638678e+006 1.112350794865e+006 1.108985594844e+006 1.108984118255e+006 1.112423271115e+006 1.111971694366e+006 1.111712858243e+006 1.112057160373e+006 1.112292122740e+006 1.112082055254e+006 1.111828558035e+006 1.112031190432e+006 1.112034989451e+006 1.111881995850e+006 1.111695709722e+006 1.111753075003e+006 1.112216362438e+006 1.112074904119e+006 1.112237917027e+006 1.111942128484e+006 1.111675300735e+006 1.111794708056e+006 1.111224233583e+006 1.040661663922e+006 1.111547750683e+006 1.020120595468e+006 1.111153821736e+006 1.111611476168e+006 1.111425997575e+006 1.111869216057e+006 1.111512533895e+006 1.112248879686e+006 1.111191432002e+006 1.112156639365e+006 1.112264171524e+006 1.112210593984e+006 1.112253050702e+006 1.112246529563e+006 1.112180555670e+006 1.038623365662e+006 1.044020726071e+006 1.033168995346e+006 1.047485194935e+006 1.112086091620e+006 1.044602277747e+006 1.029799264908e+006 1.111688720363e+006 1.112061296359e+006 1.112185035583e+006 1.112185288428e+006 1.044857878003e+006 1.111891492630e+006 1.111880048735e+006 1.108309258721e+006 1.108309589389e+006 1.109454119994e+006 1.109452563962e+006 1.112236142260e+006 1.112066139137e+006 1.109558142809e+006 1.109555279335e+006 1.109403610337e+006 1.109422017118e+006 1.112052503290e+006 1.112156096467e+006 
        </DataArray>
        <DataArray type="Float64" Name="MEAN_PRESSURE" format="ascii">