<?xml version="1.0"?>
<VTKFile type="UnstructuredGrid" version="0.1" byte_order="LittleEndian">
  <UnstructuredGrid>
    <Piece NumberOfPoints="963" NumberOfCells="1758">
      <Points>
        <DataArray type="Float64" NumberOfComponents="3" format="ascii">
          1.600262034769e+002 1.257989505921e+001 0.000000000000e+000
          1.635346199106e+002 2.000000000000e+001 0.000000000000e+000
          1.554515002484e+002 2.000000000000e+001 0.000000000000e+000
          3.459306441575e+000 1.667621982453e+001 0.000000000000e+000
          3.062266634850e+000 1.705413688405e+001 0.000000000000e+000
          2.873380769063e+000 1.650527725632e+001 0.000000000000e+000
          1.514088444034e+000 1.865189448105e+001 0.000000000000e+000
          1.967902677551e+000 1.834103489750e+001 0.000000000000e+000
          2.034564522234e+000 1.890806711991e+001 0.000000000000e+000
          2.478275273162e+000 1.702762299110e+001 0.000000000000e+000
          2.952621433467e+000 1.774357373580e+001 0.000000000000e+000
          2.237893542067e+000 1.782457469610e+001 0.000000000000e+000
          3.313583922780e+000 3.274674552047e+000 0.000000000000e+000
          2.561432712787e+000 3.156040447793e+000 0.000000000000e+000
          3.047531989640e+000 2.714594415171e+000 0.000000000000e+000
          2.750804692284e+000 3.936058190693e+000 0.000000000000e+000
          2.599039179818e+000 2.451529939148e+000 0.000000000000e+000
          3.139686649742e+000 2.186924052088e+000 0.000000000000e+000
          1.919984553221e+000 3.358010194268e+000 0.000000000000e+000
          1.960900304591e+000 2.773319745251e+000 0.000000000000e+000
          1.894565400391e+000 1.733316857565e+001 0.000000000000e+000
          0.000000000000e+000 1.538461538461e+001 0.000000000000e+000
          5.816229249735e-001 1.567919247147e+001 0.000000000000e+000
          0.000000000000e+000 1.589743589743e+001 0.000000000000e+000
          9.766405669483e+001 2.000000000000e+001 0.000000000000e+000
          1.010672711393e+002 1.500000000000e+001 0.000000000000e+000
          1.029329279907e+002 2.000000000000e+001 0.000000000000e+000
          9.588503785413e+001 1.500000000000e+001 0.000000000000e+000
          1.039231647117e+002 1.000000000000e+001 0.000000000000e+000
          9.860830811271e+001 1.000000000000e+001 0.000000000000e+000
          1.010672711397e+002 5.000000000000e+000 0.000000000000e+000
          9.766405669557e+001 0.000000000000e+000 0.000000000000e+000
          1.029329279915e+002 0.000000000000e+000 0.000000000000e+000
          9.588503785449e+001 5.000000000000e+000 0.000000000000e+000
          7.892434178002e+001 2.000000000000e+001 0.000000000000e+000
          8.173808356948e+001 1.500000000000e+001 0.000000000000e+000
          8.328058896910e+001 2.000000000000e+001 0.000000000000e+000
          7.679274808893e+001 1.514423393202e+001 0.000000000000e+000
          7.970503892166e+001 1.000000000000e+001 0.000000000000e+000
          8.409930620613e+001 1.000000000000e+001 0.000000000000e+000
          8.173808356980e+001 5.000000000000e+000 0.000000000000e+000
          7.892434178065e+001 0.000000000000e+000 0.000000000000e+000
          8.328058896976e+001 0.000000000000e+000 0.000000000000e+000
          7.679274808925e+001 4.855766067979e+000 0.000000000000e+000
          1.084583939765e+002 2.000000000000e+001 0.000000000000e+000
          1.122011528880e+002 1.500000000000e+001 0.000000000000e+000
          1.142529496098e+002 2.000000000000e+001 0.000000000000e+000
          1.065018792644e+002 1.500000000000e+001 0.000000000000e+000
          1.153419838410e+002 1.000000000000e+001 0.000000000000e+000
          1.094968549120e+002 1.000000000000e+001 0.000000000000e+000
          1.122011528884e+002 5.000000000000e+000 0.000000000000e+000
          1.084583939773e+002 0.000000000000e+000 0.000000000000e+000
          1.142529496106e+002 0.000000000000e+000 0.000000000000e+000
          1.065018792648e+002 5.000000000000e+000 0.000000000000e+000
          1.181779812237e+002 1.500000000000e+001 0.000000000000e+000
          1.203297004775e+002 2.000000000000e+001 0.000000000000e+000
          1.214717707847e+002 1.000000000000e+001 0.000000000000e+000
          1.181779812242e+002 5.000000000000e+000 0.000000000000e+000
          1.203297004784e+002 0.000000000000e+000 0.000000000000e+000
          7.477039199538e+001 2.000000000000e+001 0.000000000000e+000
          7.551483469771e+001 1.000000000000e+001 0.000000000000e+000
          7.296959467356e+001 1.385646386579e+001 0.000000000000e+000
          7.477039199599e+001 0.000000000000e+000 0.000000000000e+000
          7.296959467379e+001 6.143536134207e+000 0.000000000000e+000
          6.918477198508e+001 1.366665532880e+001 0.000000000000e+000
          6.746477463053e+001 1.000000000000e+001 0.000000000000e+000
          7.151921701478e+001 1.000000000000e+001 0.000000000000e+000
          6.918477198529e+001 6.333344671202e+000 0.000000000000e+000
          9.263986346551e+001 2.000000000000e+001 0.000000000000e+000
          9.094345943471e+001 1.500000000000e+001 0.000000000000e+000
          9.354026529380e+001 1.000000000000e+001 0.000000000000e+000
          9.263986346623e+001 0.000000000000e+000 0.000000000000e+000
          9.094345943506e+001 5.000000000000e+000 0.000000000000e+000
          1.244344522558e+002 1.503312574389e+001 0.000000000000e+000
          1.267023895482e+002 2.000000000000e+001 0.000000000000e+000
          1.285510028831e+002 1.020485663255e+001 0.000000000000e+000
          1.244344522563e+002 5.033125743893e+000 0.000000000000e+000
          1.267023895491e+002 0.000000000000e+000 0.000000000000e+000
          8.623136018348e+001 1.500000000000e+001 0.000000000000e+000
          8.784898578901e+001 2.000000000000e+001 0.000000000000e+000
          8.870757443665e+001 1.000000000000e+001 0.000000000000e+000
          8.623136018382e+001 5.000000000000e+000 0.000000000000e+000
          8.784898578969e+001 0.000000000000e+000 0.000000000000e+000
          4.872472752737e+000 0.000000000000e+000 0.000000000000e+000
          4.204479229380e+000 6.412840757122e-001 0.000000000000e+000
          4.157376851380e+000 0.000000000000e+000 0.000000000000e+000
          5.192892237051e+000 7.280355562789e-001 0.000000000000e+000
          1.306630304579e+000 6.212843344151e-001 0.000000000000e+000
          1.050228457081e+000 0.000000000000e+000 0.000000000000e+000
          1.614006202528e+000 0.000000000000e+000 0.000000000000e+000
          1.266763055794e+001 1.554696422866e+001 0.000000000000e+000
          1.263589100638e+001 1.657720348306e+001 0.000000000000e+000
          1.174268578662e+001 1.633018318031e+001 0.000000000000e+000
          6.588835695415e+000 7.505681085529e+000 0.000000000000e+000
          6.456871838389e+000 6.658671683861e+000 0.000000000000e+000
          7.208099140752e+000 7.038822846307e+000 0.000000000000e+000
          4.412623338166e+000 9.138856431549e+000 0.000000000000e+000
          4.024185797397e+000 8.708923235630e+000 0.000000000000e+000
          4.601447447338e+000 8.507292699647e+000 0.000000000000e+000
          5.325995059827e-001 6.308307298123e+000 0.000000000000e+000
          0.000000000000e+000 6.666666666655e+000 0.000000000000e+000
          0.000000000000e+000 6.153846153835e+000 0.000000000000e+000
          3.986461521768e+000 8.146114708182e+000 0.000000000000e+000
          2.411603373059e+000 6.510912162016e+000 0.000000000000e+000
          1.807525763324e+000 6.938080373464e+000 0.000000000000e+000
          1.686779352680e+000 6.178928843543e+000 0.000000000000e+000
          2.510760620997e+000 7.229076682239e+000 0.000000000000e+000
          3.166991983438e+000 6.906135870389e+000 0.000000000000e+000
          3.452788915829e+000 6.276851216781e+000 0.000000000000e+000
          3.340122000742e+000 5.656365440432e+000 0.000000000000e+000
          4.047936562877e+000 5.873561587395e+000 0.000000000000e+000
          1.802463974828e+000 1.292744708026e+001 0.000000000000e+000
          1.383967161336e+000 1.330299552906e+001 0.000000000000e+000
          1.329690820161e+000 1.266495373033e+001 0.000000000000e+000
          2.267922292389e+000 1.431116835808e+001 0.000000000000e+000
          2.854613987538e+000 1.466581611369e+001 0.000000000000e+000
          2.339869278674e+000 1.493776402241e+001 0.000000000000e+000
          4.690956878046e+000 3.115726773737e+000 0.000000000000e+000
          4.014773718330e+000 2.850429494150e+000 0.000000000000e+000
          4.643493383296e+000 2.293565471327e+000 0.000000000000e+000
          5.186083944243e+000 1.661927139510e+000 0.000000000000e+000
          5.452965511439e+000 2.679881546544e+000 0.000000000000e+000
          5.360460104304e+000 3.539902157655e+000 0.000000000000e+000
          6.197986304192e+000 3.115706366113e+000 0.000000000000e+000
          7.929356606585e-001 1.634705420870e+001 0.000000000000e+000
          1.222819867503e+000 1.599517159419e+001 0.000000000000e+000
          1.215723647926e+000 1.546209040954e+001 0.000000000000e+000
          1.770601276021e+000 1.521217632514e+001 0.000000000000e+000
          1.242830150061e+000 1.493919370237e+001 0.000000000000e+000
          1.166444124506e+000 4.610115997312e+000 0.000000000000e+000
          1.851620547934e+000 4.486892013458e+000 0.000000000000e+000
          1.494152702314e+000 5.145235789232e+000 0.000000000000e+000
          1.353088107040e+000 4.090803091641e+000 0.000000000000e+000
          3.802567455935e+000 5.084697985980e+000 0.000000000000e+000
          1.014840185783e+000 5.494768572296e+000 0.000000000000e+000
          8.831064584820e-001 5.109311190608e+000 0.000000000000e+000
          1.727903958959e+000 1.618384478933e+001 0.000000000000e+000
          1.343261525342e+000 1.651800241408e+001 0.000000000000e+000
          3.308120627291e+000 8.593311644828e+000 0.000000000000e+000
[...]
      <PointData Scalars="LIQUID_PRESSURE">
        <DataArray type="Float64" Name="LIQUID_PRESSURE" format="ascii">
          9.988625695841e+005 9.982634550460e+005 9.998197081892e+005 9.999673941793e+005 1.000112820123e+006 1.000309337363e+006 1.000243807153e+006 1.000835649900e+006 1.000876505747e+006 1.000864163707e+006 1.000210100367e+006 1.000915605592e+006 9.998976076674e+005 1.000705087446e+006 1.000097766340e+006 1.000382994329e+006 1.000699206364e+006 9.999704674439e+005 1.000807724318e+006 1.000874074345e+006 1.000716191363e+006 1.000765881689e+006 1.000380355031e+006 1.000760314760e+006 1.000332610117e+006 1.000337208948e+006 1.000335143655e+006 1.000330429630e+006 1.000335513479e+006 1.000333129105e+006 1.000336966757e+006 1.000332419512e+006 1.000334859367e+006 1.000330371113e+006 1.000336044364e+006 1.000329954874e+006 1.000333308557e+006 1.000338288438e+006 1.000341318512e+006 1.000329630544e+006 1.000330028978e+006 1.000336165868e+006 1.000333253018e+006 1.000337958897e+006 1.000340752647e+006 1.000343060599e+006 1.000346097063e+006 1.000337177691e+006 1.000347571623e+006 1.000341487105e+006 1.000342475573e+006 1.000340218220e+006 1.000345546346e+006 1.000336928904e+006 1.000356073790e+006 1.000361669655e+006 1.000368123716e+006 1.000357535330e+006 1.000362502247e+006 1.000348680022e+006 1.000330989467e+006 1.000328299494e+006 1.000348332181e+006 1.000328751013e+006 1.000317908929e+006 1.000326661710e+006 1.000373067008e+006 1.000318259594e+006 1.000337949466e+006 1.000329946989e+006 1.000336918257e+006 1.000337870464e+006 1.000329894217e+006 1.000382717401e+006 1.000388674064e+006 1.000396085133e+006 1.000384391809e+006 1.000392376898e+006 1.000339221303e+006 1.000326719397e+006 1.000328982738e+006 1.000339187645e+006 1.000326692242e+006 1.000610294039e+006 1.000777106273e+006 1.000650699510e+006 1.000158204639e+006 1.000010518387e+006 9.999175245296e+005 1.000425509888e+006 1.000465531721e+006 1.000260004829e+006 1.000344231258e+006 1.000921604088e+006 1.000878742783e+006 1.000349795321e+006 1.000902468287e+006 1.000601000026e+006 1.000713905469e+006 1.000387576218e+006 1.000835785649e+006 1.000796337289e+006 1.000578082768e+006 1.000831514406e+006 1.000663273581e+006 1.000530290171e+006 1.000693791904e+006 9.999238974229e+005 9.999414400474e+005 9.999029940886e+005 1.000680870276e+006 1.000619452866e+006 1.000055399214e+006 9.999999635411e+005 1.000937413999e+006 1.000313780273e+006 1.000914596550e+006 1.000663471298e+006 1.000613747283e+006 1.000698356753e+006 1.000147366844e+006 9.999754172420e+005 9.999337242795e+005 1.000581204042e+006 1.000177045158e+006 9.999022218389e+005 9.999011151633e+005 1.000578272470e+006 9.999070739631e+005 9.999113477468e+005 1.000620554164e+006 1.000176688832e+006 9.999812036700e+005 1.000252246666e+006 9.999299688902e+005 1.000035295721e+006 1.000473577834e+006 9.999593514370e+005 9.998950626584e+005 1.000528583990e+006 9.998976357308e+005 1.000102189367e+006 1.000153104866e+006 9.999469884821e+005 1.000169971671e+006 9.999953778012e+005 1.000038669076e+006 1.000159584906e+006 1.000140183449e+006 1.000253423064e+006 1.000679927110e+006 1.000689924168e+006 1.000704540484e+006 9.999281249895e+005 1.000449882845e+006 1.000909801379e+006 1.000615222682e+006 1.000606604522e+006 1.000140111102e+006 9.999434501390e+005 1.000333267018e+006 1.000142764176e+006 1.000014311907e+006 1.000021365742e+006 1.000070832809e+006 1.000527145730e+006 1.000687200254e+006 1.000675914069e+006 1.000695324803e+006 1.000900856989e+006 1.000296198119e+006 1.000819826662e+006 1.000166778005e+006 9.999277172825e+005 1.000544707835e+006 9.999579419461e+005 1.000446858507e+006 1.000660305659e+006 1.000722726749e+006 9.998961407279e+005 1.000650640471e+006 1.000604908184e+006 1.000155225028e+006 1.000863404950e+006 1.000135671560e+006 1.000298095106e+006 9.999251103179e+005 9.999793965983e+005 1.000557036415e+006 1.000900878213e+006 1.000383937375e+006 1.000744410092e+006 1.000919321230e+006 1.000913351864e+006 9.999745113441e+005 1.000904734017e+006 1.000162781209e+006 1.000743645968e+006 1.000020539094e+006 9.999677073534e+005 1.000692835730e+006 1.000861833427e+006 1.000495939418e+006 9.999102639439e+005 9.999058371472e+005 9.998952453033e+005 1.000356823472e+006 9.999292009116e+005 9.999764716506e+005 1.000038495918e+006 9.999333264244e+005 1.000309917847e+006 1.000886696899e+006 1.000391391022e+006 1.000388208096e+006 1.000638761521e+006 1.000905168434e+006 9.999348931662e+005 1.000340787508e+006 9.999770371141e+005 1.000821444374e+006 1.000216799418e+006 1.000919332913e+006 9.999338558809e+005 1.000255215096e+006 9.999490809127e+005 1.000658143721e+006 1.000810108889e+006 1.000034241580e+006 1.000842592308e+006 9.999020394450e+005 9.999512131270e+005 1.000481361908e+006 9.999846813167e+005 1.000338861428e+006 1.000200405898e+006 1.000637802883e+006 1.000619531488e+006 9.998844358170e+005 1.000968502008e+006 1.000371673551e+006 1.000407754142e+006 1.000398638443e+006 1.000828422638e+006 1.000768055620e+006 1.000800797168e+006 1.000818405105e+006 1.000518092858e+006 1.000608939734e+006 1.000570708077e+006 9.999234611243e+005 1.000354462407e+006 1.000626929982e+006 1.000666693897e+006 1.000663543068e+006 1.000683201514e+006 1.000630071358e+006 1.000676264486e+006 1.000577942460e+006 1.000679799959e+006 1.000663236377e+006 1.000693681372e+006 1.000671107275e+006 1.000287107690e+006 1.000337719023e+006 1.000431066511e+006 1.000409635016e+006 1.000406596851e+006 1.000303014035e+006 1.000322264112e+006 1.000292607039e+006 1.000456932209e+006 1.000413659498e+006 1.000416301635e+006 1.000306523609e+006 1.000327646428e+006 1.000291396677e+006 1.000397009141e+006 1.000498230272e+006 1.000391997207e+006 1.000315347431e+006 1.000292401721e+006 1.000330867954e+006 1.000389421879e+006 1.000497245981e+006 1.000388419349e+006 1.000316561389e+006 1.000365413245e+006 1.000397595538e+006 1.000390571797e+006 1.000375660484e+006 1.000367924103e+006 1.000372236648e+006 1.000397607818e+006 1.000365423549e+006 1.000390561561e+006 1.000375645023e+006 1.000367930044e+006 1.000372228062e+006 1.000314730036e+006 1.000475758612e+006 1.000332753932e+006 1.000377050141e+006 1.000310156648e+006 1.000355597946e+006 1.000475752147e+006 1.000314761795e+006 1.000332731673e+006 1.000377039318e+006 1.000310156260e+006 1.000355598906e+006 1.000473394917e+006 1.000407787053e+006 1.000289125592e+006 1.000331827868e+006 1.000407743570e+006 1.000473313485e+006 1.000289101969e+006 1.000331474305e+006 1.000434672638e+006 1.000291159339e+006 1.000503802618e+006 1.000336189904e+006 1.000471956386e+006 1.000428531929e+006 1.000291087777e+006 1.000434663154e+006 1.000503953007e+006 1.000336211267e+006 1.000471970021e+006 1.000428533895e+006 1.000296723796e+006 1.000283330570e+006 1.000328529989e+006 1.000295862019e+006 1.000283671310e+006 1.000328294965e+006 1.000393366598e+006 1.000445191097e+006 1.000383601928e+006 1.000393366923e+006 1.000445166063e+006 1.000383572629e+006 1.000300362325e+006 1.000300441560e+006 1.000443031048e+006 1.000365186176e+006 1.000306174743e+006 1.000315091409e+006 1.000442402268e+006 1.000315279672e+006 1.000403452609e+006 1.000361095237e+006 1.000369781859e+006 1.000384683598e+006 1.000403449388e+006 1.000384679642e+006 1.000330814893e+006 1.000388843449e+006 1.000331880303e+006 1.000389970256e+006 1.000486574615e+006 1.000486028865e+006 1.000389520341e+006 1.000448095748e+006 1.000286617987e+006 1.000286599597e+006 1.000402677464e+006 1.000327243280e+006 1.000402685166e+006 1.000413606270e+006 1.000391646642e+006 1.000413597147e+006 1.000405823147e+006 1.000405846185e+006 1.000364464149e+006 1.000417224862e+006 1.000417214067e+006 1.000394627275e+006 1.000329899088e+006 1.000394748263e+006 1.000361980992e+006 1.000330808338e+006 1.000343320249e+006 1.000327378116e+006 1.000355161456e+006 1.000299659236e+006 1.000354279661e+006 1.000296190822e+006 1.000116383986e+006 1.000134058138e+006 1.000438384834e+006 1.000536019682e+006 1.000245969332e+006 1.000556714468e+006 1.000928898552e+006 1.000355124731e+006 1.000860346367e+006 1.000629240869e+006 1.000296215762e+006 1.000441567151e+006 1.000518270685e+006 1.000080319554e+006 1.001374749884e+006 1.000214961720e+006 9.993443997399e+005 1.000844782989e+006 1.000212902781e+006 1.000685719019e+006 1.000793886835e+006 1.000384725588e+006 1.000707359887e+006 9.998702559848e+005 1.000492670528e+006 1.000373531309e+006 1.000910612089e+006 1.000553534320e+006 1.000181794837e+006 1.000177006866e+006 1.000416766185e+006 1.000896471251e+006 1.000127522341e+006 1.000841601701e+006 1.000487138041e+006 1.000753129179e+006 1.000068987485e+006 1.000145820224e+006 1.000152864948e+006 1.000651440328e+006 1.000101835485e+006 1.000792532876e+006 1.000437493769e+006 1.000621654425e+006 1.000777125174e+006 1.000556596615e+006 1.000293965737e+006 1.000576339455e+006 1.000246536419e+006 9.999086796972e+005 1.000451871502e+006 1.000820245752e+006 1.000420239449e+006 1.000022418726e+006 1.000006203506e+006 1.000304697988e+006 1.000362689986e+006 1.000370287757e+006 1.000653091613e+006 1.000645788488e+006 1.000810477530e+006 1.000463385571e+006 1.000589760703e+006 1.000034358167e+006 1.000862212840e+006 9.999744810239e+005 1.000447999932e+006 1.000379305252e+006 1.000455452735e+006 1.000497537184e+006 9.999305470502e+005 1.000080425687e+006 1.000803782111e+006 9.999592621822e+005 1.000040931892e+006 1.000584437419e+006 1.000561493758e+006 1.000073729529e+006 1.000102792006e+006 1.000064770631e+006 1.000343223873e+006 1.000072290143e+006 1.000530303268e+006 1.000623492152e+006 1.000567423925e+006 1.000071167968e+006 1.000261945671e+006 1.000735444804e+006 1.000823120680e+006 1.000503026384e+006 1.000163361024e+006 1.000216108450e+006 9.999918519781e+005 9.999058637218e+005 1.000594488227e+006 1.000832495550e+006 9.998644485695e+005 9.999492357235e+005 1.000581575956e+006 1.000926214916e+006 1.000471319888e+006 1.000001051199e+006 1.000651277395e+006 1.000766889368e+006 1.000457846117e+006 1.000101865781e+006 1.000865448753e+006 1.000351518170e+006 1.000427727516e+006 1.000331202796e+006 1.000341402895e+006 9.999401462978e+005 1.000072182950e+006 1.000566337070e+006 1.000871915659e+006 1.000376481837e+006 9.999636028529e+005 1.000233142739e+006 1.000616745467e+006 1.000619132833e+006 1.000868681388e+006 1.000115843254e+006 1.000008403123e+006 1.000822543753e+006 1.000760465442e+006 1.000768173642e+006 1.000430397052e+006 9.999065002129e+005 1.000482838668e+006 1.000888517609e+006 1.000362254244e+006 1.000870527306e+006 1.000873573443e+006 1.000600441190e+006 9.999742627883e+005 1.000833706373e+006 1.000820075777e+006 9.998906872902e+005 1.000079776446e+006 1.000617340763e+006 1.000393353364e+006 1.000126208168e+006 1.000205225197e+006 1.000841953289e+006 1.000390139272e+006 1.000535733086e+006 1.000860293684e+006 1.000091955833e+006 1.000311560036e+006 1.000583650552e+006 1.000171307934e+006 1.000260316617e+006 1.000697724144e+006 1.000083333493e+006 1.000194600538e+006 1.000104134831e+006 1.000876817550e+006 1.000925344566e+006 9.999821911870e+005 1.000040269968e+006 1.000160744783e+006 1.000668519335e+006 1.000365398615e+006 1.000395031113e+006 1.000897037542e+006 1.000656560405e+006 1.000374917681e+006 1.000503261849e+006 1.000837884856e+006 1.000833727716e+006 1.000550164321e+006 1.000495580678e+006 1.000098790426e+006 1.000340776278e+006 1.000058938811e+006 1.000921999465e+006 9.998621553485e+005 1.000668743136e+006 1.000463281001e+006 1.000162190453e+006 1.000010212077e+006 1.000740457593e+006 1.000000736067e+006 9.998959452486e+005 1.000330161519e+006 1.000772991609e+006 1.000325429458e+006 1.000691322008e+006 1.000477569944e+006 1.000308526298e+006 1.000824586095e+006 1.000120042559e+006 9.998670491600e+005 1.000787307717e+006 1.000246729779e+006 1.000847335422e+006 1.000044984970e+006 1.000765807787e+006 1.000389492842e+006 9.998897711910e+005 1.000792641220e+006 1.000165060145e+006 1.000849127139e+006 9.999972206520e+005 1.000411042607e+006 1.000618944992e+006 9.999691562869e+005 9.999874079987e+005 1.000656462710e+006 9.985577697248e+005 9.986694485835e+005 9.989809038809e+005 1.000184900884e+006 1.000487329485e+006 1.000826525882e+006 1.000616996911e+006 1.000067616750e+006 1.000835816951e+006 1.000227357566e+006 9.999231205360e+005 1.000782362341e+006 1.000301763971e+006 1.000400529246e+006 1.000403096311e+006 1.000486779567e+006 1.000817308895e+006 1.000400802578e+006 1.000263200233e+006 1.000690966465e+006 9.999470568156e+005 1.000633166049e+006 1.000170557912e+006 1.000672778427e+006 1.000241830509e+006 1.000588483237e+006 1.000245583817e+006 1.000202086179e+006 9.951437078734e+005 9.973498846935e+005 1.000605250375e+006 9.999119382453e+005 9.999858905438e+005 1.000523834245e+006 1.000007525319e+006 1.000334393869e+006 1.000359714185e+006 1.000425767481e+006 1.000358920717e+006 1.000422464514e+006 9.999444530320e+005 1.000244516650e+006 9.999668525833e+005 9.999242769747e+005 1.000268605085e+006 1.000414843225e+006 1.000476830246e+006 1.000414612377e+006 1.000784619482e+006 1.000334382130e+006 1.000170075781e+006 1.000439971331e+006 1.000217939359e+006 9.999438657200e+005 1.000722335243e+006 1.000877111064e+006 9.999320170023e+005 9.998680952764e+005 1.000877910390e+006 9.998718043538e+005 1.000141619788e+006 1.000680458950e+006 9.981441515605e+005 9.983453817558e+005 1.000654788722e+006 1.000851834487e+006 1.000502786329e+006 1.000708084235e+006 1.000635967213e+006 1.000610158024e+006 1.000108560078e+006 1.000282588274e+006 1.000282670398e+006 1.000676471831e+006 1.000614471968e+006 1.000132219130e+006 1.000618120657e+006 1.000606529979e+006 1.000692309713e+006 1.000817939938e+006 1.000486847332e+006 1.000013802977e+006 9.993669872613e+005 9.994711888483e+005 1.000735035699e+006 1.000846259988e+006 1.000767149533e+006 1.000188363368e+006 1.000592703473e+006 1.000655733269e+006 1.000679322378e+006 1.000518531598e+006 1.000219974792e+006 1.000389701970e+006 1.000480792176e+006 1.000559316743e+006 1.000440030434e+006 1.000387154927e+006 1.000568833648e+006 1.000386540026e+006 1.000345685398e+006 1.000375060734e+006 1.000238249384e+006 1.000336758811e+006 1.000353593140e+006 1.000492735751e+006 1.000289530271e+006 1.000428086654e+006 1.000279788408e+006 1.000469710400e+006 1.000380054821e+006 1.000487734531e+006 1.000489403023e+006 1.000488102427e+006 1.000480465227e+006 1.000350803229e+006 1.000320444760e+006 1.000204868659e+006 1.000319853882e+006 1.000206851248e+006 1.000617401419e+006 1.000358383535e+006 1.000543574616e+006 1.000362601661e+006 1.000551520306e+006 1.000413096410e+006 1.000346191243e+006 1.000428324215e+006 1.000359047871e+006 1.000357769369e+006 1.000412370546e+006 1.000428205214e+006 1.000332591464e+006 1.000428574936e+006 1.000522018811e+006 1.000424029371e+006 1.000547173439e+006 1.000244188789e+006 1.000301951245e+006 1.000238250134e+006 1.000289348517e+006 1.000521555550e+006 1.000439041572e+006 1.000522267109e+006 1.000440566423e+006 1.000405747780e+006 1.000191748960e+006 1.000614703050e+006 1.000566101397e+006 1.000421997711e+006 1.000331616547e+006 1.000193570507e+006 1.000406930145e+006 1.000610218998e+006 1.000566886384e+006 1.000422634565e+006 1.000332077114e+006 1.000312239560e+006 1.000229483610e+006 1.000414460670e+006 1.000314711305e+006 1.000225962697e+006 1.000418536317e+006 1.000640639140e+006 1.000491435203e+006 1.000559259177e+006 1.000640068669e+006 1.000470313538e+006 1.000560531493e+006 1.000097045139e+006 1.000451916962e+006 1.000113535743e+006 1.000097708664e+006 1.000477828259e+006 1.000129564266e+006 1.000719147013e+006 1.000156401904e+006 1.000691347527e+006 1.000142750003e+006 1.000271367657e+006 1.000582965031e+006 1.000271083997e+006 1.000580134842e+006 1.000329618038e+006 1.000427249646e+006 1.000391786119e+006 1.000331532871e+006 1.000426645656e+006 1.000392150499e+006 1.000288751335e+006 1.000488370246e+006 1.000288395512e+006 1.000487588394e+006 1.000507894065e+006 1.000510199626e+006 1.000453463948e+006 1.000452402982e+006 1.000183777104e+006 1.000177393742e+006 1.000159100750e+006 1.000624395101e+006 1.000106513784e+006 1.000444982082e+006 1.000608127488e+006 1.000582133487e+006 1.000177680499e+006 1.000185859068e+006 1.000195237937e+006 1.000594974256e+006 1.000272820572e+006 1.000597169745e+006 1.000271606265e+006 1.000432467097e+006 1.000150900882e+006 1.000418883146e+006 1.000145136348e+006 1.000130167337e+006 1.000660352133e+006 1.000227820378e+006 9.999472744434e+005 1.000776337234e+006 1.000726438796e+006 1.000630262165e+006 1.000571027719e+006 1.000471046293e+006 1.000616025554e+006 1.000595975349e+006 1.000556238082e+006 1.000178167745e+006 1.000374461778e+006 1.000093019138e+006 1.000441478884e+006 1.000234685500e+006 1.000104099888e+006 1.000241664537e+006 1.000169456381e+006 1.000245144554e+006 1.000751020700e+006 1.000774937117e+006 1.000244272929e+006 1.000621123896e+006 1.000233701221e+006 1.000435445154e+006 1.000637674860e+006 1.000000000000e+006 1.000000000000e+006 9.994581143414e+005 1.000671529074e+006 1.000850456211e+006 1.000162166848e+006 1.000705828278e+006 1.000707406350e+006 9.999952807300e+005 1.000823132315e+006 1.000365224195e+006 1.000769178851e+006 1.000149629562e+006 1.000105468411e+006 1.000096287678e+006 9.999556663665e+005 1.000286232952e+006 1.000159836060e+006 1.000725086968e+006 1.000851617272e+006 1.000377730390e+006 1.000135182135e+006 1.000150555990e+006 1.000743112804e+006 1.000697685636e+006 1.000675959220e+006 1.000339954018e+006 1.000338639077e+006 1.000854813970e+006 1.000352011476e+006 1.000352178475e+006 1.000205918460e+006 1.000318378057e+006 1.000713469125e+006 1.000190547192e+006 1.000075331709e+006 9.999498022081e+005 1.000252013708e+006 1.000499581157e+006 1.000178057836e+006 1.000389511454e+006 1.000099777898e+006 1.000176637839e+006 1.000429673786e+006 1.000802916902e+006 1.000601417797e+006 1.000129622650e+006 1.000773810443e+006 1.000449671577e+006 1.000777036787e+006 1.000512315231e+006 1.000413064916e+006 9.989239933481e+005 1.000797659742e+006 1.000673742664e+006 9.999501678042e+005 1.000257870774e+006 1.000837093069e+006 1.000385226855e+006 1.000384926140e+006 1.000871749379e+006 1.000600357514e+006 1.000420936234e+006 1.000187264405e+006 1.000805182544e+006 1.000702334448e+006 9.999889409111e+005 1.000318459311e+006 1.000371926060e+006 1.000593765028e+006 1.000236126918e+006 1.000176828017e+006 1.000797785981e+006 1.000616716313e+006 1.000791034083e+006 1.000823136927e+006 1.000592934445e+006 9.999476899013e+005 1.000076771531e+006 1.000286709289e+006 1.000718750471e+006 9.983570779999e+005 1.000225428264e+006 9.999400234988e+005 1.000398102428e+006 1.000142682214e+006 1.000651740320e+006 1.000907587271e+006 1.000690198155e+006 1.000696521173e+006 1.000732830764e+006 1.000704475336e+006 1.000713939552e+006 1.000813268153e+006 1.000733823008e+006 1.000147617778e+006 1.000412538504e+006 1.000464993346e+006 1.000386690651e+006 1.000660665487e+006 1.000328142283e+006 9.990312919589e+005 1.000087059397e+006 1.000681771085e+006 1.000668432104e+006 1.000819347886e+006 1.000290106227e+006 1.000231680694e+006 1.000280385677e+006 1.000357713995e+006 1.000357516275e+006 1.000426179595e+006 1.000422745103e+006 1.000782903933e+006 1.000684730826e+006 1.000241397166e+006 1.000247205940e+006 1.000261944760e+006 1.000273799321e+006 1.000670167827e+006 1.000652660169e+006 
        </DataArray>
        <DataArray type="Float64" Name="MEAN_PRESSURE" format="ascii">