<?xml version="1.0"?>
<VTKFile type="UnstructuredGrid" version="0.1" byte_order="LittleEndian">
  <UnstructuredGrid>
    <Piece NumberOfPoints="963" NumberOfCells="1758">
      <Points>
        <DataArray type="Float64" NumberOfComponents="3" format="ascii">
          1.600262034769e+002 1.257989505921e+001 0.000000000000e+000
          1.635346199106e+002 2.000000000000e+001 0.000000000000e+000
          1.554515002484e+002 2.000000000000e+001 0.000000000000e+000
          3.459306441575e+000 1.667621982453e+001 0.000000000000e+000
          3.062266634850e+000 1.705413688405e+001 0.000000000000e+000
          2.873380769063e+000 1.650527725632e+001 0.000000000000e+000
          1.514088444034e+000 1.865189448105e+001 0.000000000000e+000
          1.967902677551e+000 1.834103489750e+001 0.000000000000e+000
          2.034564522234e+000 1.890806711991e+001 0.000000000000e+000
          2.478275273162e+000 1.702762299110e+001 0.000000000000e+000
          2.952621433467e+000 1.774357373580e+001 0.000000000000e+000
          2.237893542067e+000 1.782457469610e+001 0.000000000000e+000
          3.313583922780e+000 3.274674552047e+000 0.000000000000e+000
          2.561432712787e+000 3.156040447793e+000 0.000000000000e+000
          3.047531989640e+000 2.714594415171e+000 0.000000000000e+000
          2.750804692284e+000 3.936058190693e+000 0.000000000000e+000
          2.599039179818e+000 2.451529939148e+000 0.000000000000e+000
          3.139686649742e+000 2.186924052088e+000 0.000000000000e+000
          1.919984553221e+000 3.358010194268e+000 0.000000000000e+000
          1.960900304591e+000 2.773319745251e+000 0.000000000000e+000
          1.894565400391e+000 1.733316857565e+001 0.000000000000e+000
          0.000000000000e+000 1.538461538461e+001 0.000000000000e+000
          5.816229249735e-001 1.567919247147e+001 0.000000000000e+000
          0.000000000000e+000 1.589743589743e+001 0.000000000000e+000
          9.766405669483e+001 2.000000000000e+001 0.000000000000e+000
          1.010672711393e+002 1.500000000000e+001 0.000000000000e+000
          1.029329279907e+002 2.000000000000e+001 0.000000000000e+000
          9.588503785413e+001 1.500000000000e+001 0.000000000000e+000
          1.039231647117e+002 1.000000000000e+001 0.000000000000e+000
          9.860830811271e+001 1.000000000000e+001 0.000000000000e+000
          1.010672711397e+002 5.000000000000e+000 0.000000000000e+000
          9.766405669557e+001 0.000000000000e+000 0.000000000000e+000
          1.029329279915e+002 0.000000000000e+000 0.000000000000e+000
          9.588503785449e+001 5.000000000000e+000 0.000000000000e+000
          7.892434178002e+001 2.000000000000e+001 0.000000000000e+000
          8.173808356948e+001 1.500000000000e+001 0.000000000000e+000
          8.328058896910e+001 2.000000000000e+001 0.000000000000e+000
          7.679274808893e+001 1.514423393202e+001 0.000000000000e+000
          7.970503892166e+001 1.000000000000e+001 0.000000000000e+000
          8.409930620613e+001 1.000000000000e+001 0.000000000000e+000
          8.173808356980e+001 5.000000000000e+000 0.000000000000e+000
          7.892434178065e+001 0.000000000000e+000 0.000000000000e+000
          8.328058896976e+001 0.000000000000e+000 0.000000000000e+000
          7.679274808925e+001 4.855766067979e+000 0.000000000000e+000
          1.084583939765e+002 2.000000000000e+001 0.000000000000e+000
          1.122011528880e+002 1.500000000000e+001 0.000000000000e+000
          1.142529496098e+002 2.000000000000e+001 0.000000000000e+000
          1.065018792644e+002 1.500000000000e+001 0.000000000000e+000
          1.153419838410e+002 1.000000000000e+001 0.000000000000e+000
          1.094968549120e+002 1.000000000000e+001 0.000000000000e+000
          1.122011528884e+002 5.000000000000e+000 0.000000000000e+000
          1.084583939773e+002 0.000000000000e+000 0.000000000000e+000
          1.142529496106e+002 0.000000000000e+000 0.000000000000e+000
          1.065018792648e+002 5.000000000000e+000 0.000000000000e+000
          1.181779812237e+002 1.500000000000e+001 0.000000000000e+000
          1.203297004775e+002 2.000000000000e+001 0.000000000000e+000
          1.214717707847e+002 1.000000000000e+001 0.000000000000e+000
          1.181779812242e+002 5.000000000000e+000 0.000000000000e+000
          1.203297004784e+002 0.000000000000e+000 0.000000000000e+000
          7.477039199538e+001 2.000000000000e+001 0.000000000000e+000
          7.551483469771e+001 1.000000000000e+001 0.000000000000e+000
          7.296959467356e+001 1.385646386579e+001 0.000000000000e+000
          7.477039199599e+001 0.000000000000e+000 0.000000000000e+000
          7.296959467379e+001 6.143536134207e+000 0.000000000000e+000
          6.918477198508e+001 1.366665532880e+001 0.000000000000e+000
          6.746477463053e+001 1.000000000000e+001 0.000000000000e+000
          7.151921701478e+001 1.000000000000e+001 0.000000000000e+000
          6.918477198529e+001 6.333344671202e+000 0.000000000000e+000
          9.263986346551e+001 2.000000000000e+001 0.000000000000e+000
          9.094345943471e+001 1.500000000000e+001 0.000000000000e+000
          9.354026529380e+001 1.000000000000e+001 0.000000000000e+000
          9.263986346623e+001 0.000000000000e+000 0.000000000000e+000
          9.094345943506e+001 5.000000000000e+000 0.000000000000e+000
          1.244344522558e+002 1.503312574389e+001 0.000000000000e+000
          1.267023895482e+002 2.000000000000e+001 0.000000000000e+000
          1.285510028831e+002 1.020485663255e+001 0.000000000000e+000
          1.244344522563e+002 5.033125743893e+000 0.000000000000e+000
          1.267023895491e+002 0.000000000000e+000 0.000000000000e+000
          8.623136018348e+001 1.500000000000e+001 0.000000000000e+000
          8.784898578901e+001 2.000000000000e+001 0.000000000000e+000
          8.870757443665e+001 1.000000000000e+001 0.000000000000e+000
          8.623136018382e+001 5.000000000000e+000 0.000000000000e+000
          8.784898578969e+001 0.000000000000e+000 0.000000000000e+000
          4.872472752737e+000 0.000000000000e+000 0.000000000000e+000
          4.204479229380e+000 6.412840757122e-001 0.000000000000e+000
          4.157376851380e+000 0.000000000000e+000 0.000000000000e+000
          5.192892237051e+000 7.280355562789e-001 0.000000000000e+000
          1.306630304579e+000 6.212843344151e-001 0.000000000000e+000
          1.050228457081e+000 0.000000000000e+000 0.000000000000e+000
          1.614006202528e+000 0.000000000000e+000 0.000000000000e+000
          1.266763055794e+001 1.554696422866e+001 0.000000000000e+000
          1.263589100638e+001 1.657720348306e+001 0.000000000000e+000
          1.174268578662e+001 1.633018318031e+001 0.000000000000e+000
          6.588835695415e+000 7.505681085529e+000 0.000000000000e+000
          6.456871838389e+000 6.658671683861e+000 0.000000000000e+000
          7.208099140752e+000 7.038822846307e+000 0.000000000000e+000
          4.412623338166e+000 9.138856431549e+000 0.000000000000e+000
          4.024185797397e+000 8.708923235630e+000 0.000000000000e+000
          4.601447447338e+000 8.507292699647e+000 0.000000000000e+000
          5.325995059827e-001 6.308307298123e+000 0.000000000000e+000
          0.000000000000e+000 6.666666666655e+000 0.000000000000e+000
          0.000000000000e+000 6.153846153835e+000 0.000000000000e+000
          3.986461521768e+000 8.146114708182e+000 0.000000000000e+000
          2.411603373059e+000 6.510912162016e+000 0.000000000000e+000
          1.807525763324e+000 6.938080373464e+000 0.000000000000e+000
          1.686779352680e+000 6.178928843543e+000 0.000000000000e+000
          2.510760620997e+000 7.229076682239e+000 0.000000000000e+000
          3.166991983438e+000 6.906135870389e+000 0.000000000000e+000
          3.452788915829e+000 6.276851216781e+000 0.000000000000e+000
          3.340122000742e+000 5.656365440432e+000 0.000000000000e+000
          4.047936562877e+000 5.873561587395e+000 0.000000000000e+000
          1.802463974828e+000 1.292744708026e+001 0.000000000000e+000
          1.383967161336e+000 1.330299552906e+001 0.000000000000e+000
          1.329690820161e+000 1.266495373033e+001 0.000000000000e+000
          2.267922292389e+000 1.431116835808e+001 0.000000000000e+000
          2.854613987538e+000 1.466581611369e+001 0.000000000000e+000
          2.339869278674e+000 1.493776402241e+001 0.000000000000e+000
          4.690956878046e+000 3.115726773737e+000 0.000000000000e+000
          4.014773718330e+000 2.850429494150e+000 0.000000000000e+000
          4.643493383296e+000 2.293565471327e+000 0.000000000000e+000
          5.186083944243e+000 1.661927139510e+000 0.000000000000e+000
          5.452965511439e+000 2.679881546544e+000 0.000000000000e+000
          5.360460104304e+000 3.539902157655e+000 0.000000000000e+000
          6.197986304192e+000 3.115706366113e+000 0.000000000000e+000
          7.929356606585e-001 1.634705420870e+001 0.000000000000e+000
          1.222819867503e+000 1.599517159419e+001 0.000000000000e+000
          1.215723647926e+000 1.546209040954e+001 0.000000000000e+000
          1.770601276021e+000 1.521217632514e+001 0.000000000000e+000
          1.242830150061e+000 1.493919370237e+001 0.000000000000e+000
          1.166444124506e+000 4.610115997312e+000 0.000000000000e+000
          1.851620547934e+000 4.486892013458e+000 0.000000000000e+000
          1.494152702314e+000 5.145235789232e+000 0.000000000000e+000
          1.353088107040e+000 4.090803091641e+000 0.000000000000e+000
          3.802567455935e+000 5.084697985980e+000 0.000000000000e+000
          1.014840185783e+000 5.494768572296e+000 0.000000000000e+000
          8.831064584820e-001 5.109311190608e+000 0.000000000000e+000
          1.727903958959e+000 1.618384478933e+001 0.000000000000e+000
          1.343261525342e+000 1.651800241408e+001 0.000000000000e+000
          3.308120627291e+000 8.593311644828e+000 0.000000000000e+000
[...]
      <PointData Scalars="LIQUID_PRESSURE">
        <DataArray type="Float64" Name="LIQUID_PRESSURE" format="ascii">
          9.985556433283e+005 1.000806633466e+006 1.000279403913e+006 1.000037721006e+006 1.000197169361e+006 1.000407369049e+006 1.000345369157e+006 1.000990494120e+006 1.001041347108e+006 1.001014955640e+006 1.000298193134e+006 1.001080753580e+006 9.999606911180e+005 1.000848382158e+006 1.000175714265e+006 1.000498063358e+006 1.000835168253e+006 1.000041098264e+006 1.000960953672e+006 1.001036581131e+006 1.000861210794e+006 1.000910431268e+006 1.000464054169e+006 1.000901683652e+006 1.000374254678e+006 1.000374344633e+006 1.000361621241e+006 1.000371609125e+006 1.000359157767e+006 1.000373331531e+006 1.000374231462e+006 1.000374192521e+006 1.000362215664e+006 1.000371731943e+006 1.000429102461e+006 1.000406788782e+006 1.000411868809e+006 1.000429151673e+006 1.000438779442e+006 1.000399974792e+006 1.000406922256e+006 1.000429104675e+006 1.000411891940e+006 1.000428563657e+006 1.000357237546e+006 1.000345892013e+006 1.000341423244e+006 1.000352256504e+006 1.000337953190e+006 1.000355797956e+006 1.000345962158e+006 1.000356531371e+006 1.000341207566e+006 1.000352572881e+006 1.000346212032e+006 1.000332465745e+006 1.000331863130e+006 1.000341890777e+006 1.000326188441e+006 1.000444459540e+006 1.000414919657e+006 1.000418763508e+006 1.000444505077e+006 1.000419967933e+006 1.000388507958e+006 1.000419534209e+006 1.000495966942e+006 1.000388491637e+006 1.000408601678e+006 1.000387711314e+006 1.000401706322e+006 1.000408632562e+006 1.000387685757e+006 1.000339130292e+006 1.000353713702e+006 1.000363050583e+006 1.000339004641e+006 1.000356381724e+006 1.000426940592e+006 1.000384549281e+006 1.000390828290e+006 1.000426930868e+006 1.000384542014e+006 1.000708639442e+006 1.000922790489e+006 1.000790633023e+006 1.000232818993e+006 1.000088135463e+006 9.999844068202e+005 1.000546709738e+006 1.000570906468e+006 1.000354775968e+006 1.000442253557e+006 1.001065648050e+006 1.001024444137e+006 1.000448295604e+006 1.001031478272e+006 1.000722933858e+006 1.000839038623e+006 1.000470018845e+006 1.000960330821e+006 1.000918766918e+006 1.000692923925e+006 1.000983610088e+006 1.000803355846e+006 1.000660536140e+006 1.000826479738e+006 9.999904320437e+005 1.000020204431e+006 9.999677551346e+005 1.000809220535e+006 1.000754013357e+006 1.000138722271e+006 1.000082232374e+006 1.001100737634e+006 1.000409212715e+006 1.001067215235e+006 1.000778034864e+006 1.000729162360e+006 1.000818881514e+006 1.000221549810e+006 1.000037396584e+006 9.999964348069e+005 1.000705358888e+006 1.000242559310e+006 9.999676130842e+005 9.999675717355e+005 1.000710231595e+006 9.999770159837e+005 9.999760993577e+005 1.000767122502e+006 1.000275885631e+006 1.000060203562e+006 1.000355289737e+006 9.999941733439e+005 1.000095487080e+006 1.000595418190e+006 1.000033838174e+006 9.999653897123e+005 1.000644717666e+006 9.999734688116e+005 1.000167937925e+006 1.000218106958e+006 1.000022656580e+006 1.000238400805e+006 1.000058828198e+006 1.000128805235e+006 1.000244184468e+006 1.000205461833e+006 1.000345862517e+006 1.000821256091e+006 1.000795564213e+006 1.000859783595e+006 1.000000396364e+006 1.000570401059e+006 1.001080530699e+006 1.000736047137e+006 1.000704356357e+006 1.000225637972e+006 1.000019058160e+006 1.000440452995e+006 1.000240625386e+006 1.000099884169e+006 1.000085705542e+006 1.000126983563e+006 1.000650619497e+006 1.000837010735e+006 1.000783440795e+006 1.000846432531e+006 1.001059255307e+006 1.000404099441e+006 1.000964053762e+006 1.000262346088e+006 9.999922585138e+005 1.000666041975e+006 1.000042127244e+006 1.000551438534e+006 1.000760069167e+006 1.000862169394e+006 9.999542347953e+005 1.000797620772e+006 1.000743100941e+006 1.000239447713e+006 1.001015172848e+006 1.000199673185e+006 1.000365694613e+006 1.000002156015e+006 1.000061938888e+006 1.000686632727e+006 1.001060575564e+006 1.000491345177e+006 1.000875737370e+006 1.001079583385e+006 1.001068697928e+006 1.000030076955e+006 1.001059450168e+006 1.000259799987e+006 1.000885987871e+006 1.000094994903e+006 1.000045096725e+006 1.000827687286e+006 1.001024484496e+006 1.000624292686e+006 9.999824099883e+005 9.999685647898e+005 9.999733162006e+005 1.000467061281e+006 1.000001391360e+006 1.000051153543e+006 1.000123846547e+006 9.999937705056e+005 1.000422078434e+006 1.001046692679e+006 1.000537346057e+006 1.000532891859e+006 1.000762654315e+006 1.001062688364e+006 9.999881062293e+005 1.000456387302e+006 1.000054192316e+006 1.000963309827e+006 1.000312659972e+006 1.001058473291e+006 9.999981921337e+005 1.000357686923e+006 1.000015797339e+006 1.000797524793e+006 1.000952491412e+006 1.000101487202e+006 1.000998017361e+006 9.999688547544e+005 1.000021130936e+006 1.000593763559e+006 1.000067207974e+006 1.000412034678e+006 1.000285832302e+006 1.000778730854e+006 1.000760963956e+006 9.999452162879e+005 1.001138872236e+006 1.000487827414e+006 1.000481125770e+006 1.000482099219e+006 1.000956707304e+006 1.000905681405e+006 1.000938934907e+006 1.000954998967e+006 1.000604498908e+006 1.000742538559e+006 1.000657821454e+006 9.999835161632e+005 1.000420605434e+006 1.000771556994e+006 1.000782543217e+006 1.000813905203e+006 1.000834064785e+006 1.000722044196e+006 1.000828150629e+006 1.000661911642e+006 1.000826896508e+006 1.000767821613e+006 1.000851599883e+006 1.000825346531e+006 1.000365515035e+006 1.000435468113e+006 1.000570678051e+006 1.000540080412e+006 1.000542052229e+006 1.000383278382e+006 1.000411114235e+006 1.000377106589e+006 1.000604329347e+006 1.000546279063e+006 1.000556326979e+006 1.000389043334e+006 1.000428774398e+006 1.000363436764e+006 1.000508452753e+006 1.000667150623e+006 1.000512853249e+006 1.000395453260e+006 1.000363955056e+006 1.000433237066e+006 1.000496892971e+006 1.000666370019e+006 1.000507764922e+006 1.000397219394e+006 1.000463434487e+006 1.000508619944e+006 1.000489286985e+006 1.000486326029e+006 1.000464295628e+006 1.000473167630e+006 1.000508628248e+006 1.000463432684e+006 1.000489272774e+006 1.000486298291e+006 1.000464299969e+006 1.000473154611e+006 1.000397243698e+006 1.000618310947e+006 1.000427753548e+006 1.000488288679e+006 1.000390859066e+006 1.000452219656e+006 1.000618305611e+006 1.000397291637e+006 1.000427726934e+006 1.000488275429e+006 1.000390861564e+006 1.000452221037e+006 1.000592301627e+006 1.000512383348e+006 1.000370408735e+006 1.000423732015e+006 1.000512338488e+006 1.000592240243e+006 1.000370356802e+006 1.000423352828e+006 1.000572320911e+006 1.000370408443e+006 1.000664825870e+006 1.000417784513e+006 1.000616778332e+006 1.000559387863e+006 1.000370339019e+006 1.000572313641e+006 1.000664979422e+006 1.000417811426e+006 1.000616790098e+006 1.000559387466e+006 1.000372629584e+006 1.000343146759e+006 1.000426977866e+006 1.000371553858e+006 1.000343421866e+006 1.000426629439e+006 1.000500558398e+006 1.000568490718e+006 1.000484246309e+006 1.000500535658e+006 1.000568499769e+006 1.000484247423e+006 1.000372925124e+006 1.000373108947e+006 1.000575464570e+006 1.000480537326e+006 1.000383037291e+006 1.000401837502e+006 1.000574747321e+006 1.000402013807e+006 1.000521883401e+006 1.000453709375e+006 1.000470769714e+006 1.000494568444e+006 1.000521877911e+006 1.000494559643e+006 1.000422383433e+006 1.000513472913e+006 1.000423897325e+006 1.000499716247e+006 1.000613342361e+006 1.000612955608e+006 1.000499516274e+006 1.000572314593e+006 1.000364017768e+006 1.000364011722e+006 1.000515995446e+006 1.000417898065e+006 1.000516006846e+006 1.000533792191e+006 1.000504231742e+006 1.000533777847e+006 1.000510719508e+006 1.000510691309e+006 1.000459632241e+006 1.000539515946e+006 1.000539513738e+006 1.000528253261e+006 1.000414078719e+006 1.000527801752e+006 1.000459633017e+006 1.000413719698e+006 1.000434848578e+006 1.000409033028e+006 1.000469804938e+006 1.000360817535e+006 1.000466101389e+006 1.000355148149e+006 1.000197654521e+006 1.000226471724e+006 1.000539291916e+006 1.000652266731e+006 1.000350674383e+006 1.000679121566e+006 1.001086264160e+006 1.000455687554e+006 1.001028826131e+006 1.000736243544e+006 1.000385514727e+006 1.000560569301e+006 1.000602851807e+006 1.000166716709e+006 1.001799561012e+006 9.999451410898e+005 9.995295556775e+005 1.000970077929e+006 1.000312065467e+006 1.000809669536e+006 1.000928891906e+006 1.000494234813e+006 1.000849140015e+006 9.999363546450e+005 1.000610418727e+006 1.000485778981e+006 1.001074340490e+006 1.000682454223e+006 1.000263373288e+006 1.000270863810e+006 1.000525612120e+006 1.001055810391e+006 1.000210765166e+006 1.000971919620e+006 1.000568959336e+006 1.000889048495e+006 1.000172295341e+006 1.000226164636e+006 1.000236648320e+006 1.000772573272e+006 1.000192871726e+006 1.000928205415e+006 1.000559512878e+006 1.000736392553e+006 1.000916535940e+006 1.000677799960e+006 1.000365399700e+006 1.000704503903e+006 1.000352851993e+006 9.999842968478e+005 1.000574842598e+006 1.000958596338e+006 1.000512022077e+006 1.000091837203e+006 1.000085575489e+006 1.000408417162e+006 1.000468533218e+006 1.000468044857e+006 1.000766397151e+006 1.000764236163e+006 1.000945139736e+006 1.000583319721e+006 1.000720263934e+006 1.000124452806e+006 1.000996900908e+006 1.000043764547e+006 1.000558524581e+006 1.000476624522e+006 1.000564164699e+006 1.000617422495e+006 1.000000609010e+006 1.000163884181e+006 1.000937845630e+006 1.000034550086e+006 1.000111670660e+006 1.000701141927e+006 1.000690863167e+006 1.000147237892e+006 1.000192658509e+006 1.000154374549e+006 1.000452312328e+006 1.000151654554e+006 1.000647597828e+006 1.000739671852e+006 1.000695245724e+006 1.000158450475e+006 1.000356568962e+006 1.000869726791e+006 1.000968600662e+006 1.000625919619e+006 1.000254240613e+006 1.000311263030e+006 1.000065018662e+006 9.999748329818e+005 1.000705039332e+006 1.000968045178e+006 9.999251608881e+005 1.000010684232e+006 1.000705031697e+006 1.001085550443e+006 1.000581545254e+006 1.000067456863e+006 1.000776205118e+006 1.000904085617e+006 1.000566394873e+006 1.000181497779e+006 1.000996254367e+006 1.000446951078e+006 1.000537564540e+006 1.000447459307e+006 1.000457584844e+006 9.999967283031e+005 1.000155159022e+006 1.000672254285e+006 1.001011905372e+006 1.000471797122e+006 1.000030032494e+006 1.000328914394e+006 1.000729516474e+006 1.000734573080e+006 1.001016501412e+006 1.000205726904e+006 1.000070718483e+006 1.000931435424e+006 1.000890411930e+006 1.000895621609e+006 1.000545805336e+006 9.999695239876e+005 1.000563080062e+006 1.001015802370e+006 1.000454710051e+006 1.001004385590e+006 1.001010017643e+006 1.000721858193e+006 1.000049628448e+006 1.000969700794e+006 1.000974516761e+006 9.999598155869e+005 1.000154877226e+006 1.000743708307e+006 1.000489950663e+006 1.000215365394e+006 1.000296801014e+006 1.000980495293e+006 1.000482321121e+006 1.000661224210e+006 1.001011710363e+006 1.000186273476e+006 1.000410791242e+006 1.000707958730e+006 1.000266965755e+006 1.000354392004e+006 1.000823898141e+006 1.000163821570e+006 1.000282171431e+006 1.000184510193e+006 1.001021120906e+006 1.001091936839e+006 1.000045548162e+006 1.000117375508e+006 1.000241174891e+006 1.000792746224e+006 1.000469328531e+006 1.000502555099e+006 1.001058729918e+006 1.000802197274e+006 1.000483478835e+006 1.000614789346e+006 1.000957310700e+006 1.000974629932e+006 1.000670223092e+006 1.000607936904e+006 1.000195141181e+006 1.000429800680e+006 1.000133394746e+006 1.001085961863e+006 9.999217354276e+005 1.000772568686e+006 1.000579292003e+006 1.000253860813e+006 1.000090361879e+006 1.000858988828e+006 1.000062089170e+006 9.999543946520e+005 1.000401430104e+006 1.000904282787e+006 1.000427611345e+006 1.000809450407e+006 1.000586302644e+006 1.000403028821e+006 1.000958544854e+006 1.000209146342e+006 9.999174269578e+005 1.000933818258e+006 1.000341420679e+006 1.000998441331e+006 1.000131046513e+006 1.000895204288e+006 1.000482444757e+006 9.999556542293e+005 1.000908797834e+006 1.000276032445e+006 1.000979417242e+006 1.000071618815e+006 1.000494104711e+006 1.000713374035e+006 1.000043690867e+006 1.000066880211e+006 1.000777705678e+006 9.999767259262e+005 9.997066928941e+005 9.998473040034e+005 1.000289985384e+006 1.000568652640e+006 1.000975282030e+006 1.000748866029e+006 1.000147707716e+006 1.000962651891e+006 1.000326960285e+006 9.999968971718e+005 1.000896163711e+006 1.000387434912e+006 1.000543634035e+006 1.000548381735e+006 1.000567936816e+006 1.000952269557e+006 1.000519813111e+006 1.000356245095e+006 1.000808890395e+006 1.000013908216e+006 1.000760868881e+006 1.000232655893e+006 1.000802607661e+006 1.000340248768e+006 1.000690617819e+006 1.000350152641e+006 1.000293240712e+006 9.959035215896e+005 9.978687961280e+005 1.000732420797e+006 9.999831506337e+005 1.000067432363e+006 1.000632277710e+006 1.000095996271e+006 1.000412794686e+006 1.000475039006e+006 1.000541585195e+006 1.000473082915e+006 1.000537331747e+006 1.000016136846e+006 1.000312301520e+006 1.000041678813e+006 9.999807961192e+005 1.000348786676e+006 1.000524474254e+006 1.000599867705e+006 1.000524192865e+006 1.000905120361e+006 1.000432227292e+006 1.000269503671e+006 1.000549876911e+006 1.000313412920e+006 1.000010295358e+006 1.000860577384e+006 1.001016283568e+006 9.999983856513e+005 9.999248405441e+005 1.001039562258e+006 9.999458899263e+005 1.000231906000e+006 1.000804962441e+006 9.992905431893e+005 9.992615107408e+005 1.000749244855e+006 1.001017225897e+006 1.000632074006e+006 1.000846555271e+006 1.000766438483e+006 1.000701250263e+006 1.000186752744e+006 1.000336001565e+006 1.000335086800e+006 1.000803854139e+006 1.000735893274e+006 1.000211587931e+006 1.000754893478e+006 1.000738980192e+006 1.000822039583e+006 1.000953008312e+006 1.000598624636e+006 1.000082913580e+006 9.998529079457e+005 9.998964605417e+005 1.000856252987e+006 1.000978345597e+006 1.000907922586e+006 1.000283754104e+006 1.000740256642e+006 1.000755945865e+006 1.000829037391e+006 1.000626749064e+006 1.000304550944e+006 1.000492116481e+006 1.000571423653e+006 1.000689393311e+006 1.000553242913e+006 1.000486763700e+006 1.000701883019e+006 1.000494913863e+006 1.000455563675e+006 1.000477636792e+006 1.000328100593e+006 1.000438426865e+006 1.000461845489e+006 1.000600062007e+006 1.000379451344e+006 1.000539761908e+006 1.000372038466e+006 1.000586227434e+006 1.000476394109e+006 1.000594956496e+006 1.000603206334e+006 1.000595388850e+006 1.000594495397e+006 1.000456204973e+006 1.000417497143e+006 1.000291837268e+006 1.000417827049e+006 1.000294325364e+006 1.000748926225e+006 1.000465711020e+006 1.000657828660e+006 1.000471235884e+006 1.000666606228e+006 1.000517131472e+006 1.000440962422e+006 1.000524620182e+006 1.000455569683e+006 1.000451451903e+006 1.000516633165e+006 1.000523009854e+006 1.000426523366e+006 1.000539628967e+006 1.000646867875e+006 1.000536852908e+006 1.000674567940e+006 1.000335824466e+006 1.000400046679e+006 1.000329188972e+006 1.000387782968e+006 1.000630038211e+006 1.000552264048e+006 1.000630455127e+006 1.000553024973e+006 1.000516285213e+006 1.000278980631e+006 1.000734100607e+006 1.000686980930e+006 1.000530188015e+006 1.000447065456e+006 1.000281090121e+006 1.000517630020e+006 1.000729052550e+006 1.000687841239e+006 1.000531207117e+006 1.000448274182e+006 1.000400694580e+006 1.000326664700e+006 1.000522010934e+006 1.000402226076e+006 1.000321095458e+006 1.000525962495e+006 1.000770206140e+006 1.000602187162e+006 1.000678724999e+006 1.000766834627e+006 1.000580424432e+006 1.000679660220e+006 1.000178304941e+006 1.000556453873e+006 1.000195405192e+006 1.000179162980e+006 1.000589977538e+006 1.000213630390e+006 1.000839224473e+006 1.000232755125e+006 1.000809146439e+006 1.000226756384e+006 1.000363271533e+006 1.000709884205e+006 1.000363311708e+006 1.000705310880e+006 1.000417259031e+006 1.000547408294e+006 1.000502014293e+006 1.000419406779e+006 1.000546955459e+006 1.000502301210e+006 1.000376766549e+006 1.000604280955e+006 1.000376298841e+006 1.000603593944e+006 1.000631396871e+006 1.000634807712e+006 1.000565281623e+006 1.000564289782e+006 1.000260812251e+006 1.000252084540e+006 1.000237459224e+006 1.000743279786e+006 1.000193383894e+006 1.000528551844e+006 1.000722503083e+006 1.000695938433e+006 1.000268486657e+006 1.000278626540e+006 1.000294000253e+006 1.000715304879e+006 1.000363550863e+006 1.000716864438e+006 1.000361679802e+006 1.000542557053e+006 1.000235395414e+006 1.000526582849e+006 1.000227796559e+006 1.000221123090e+006 1.000796854550e+006 1.000325780676e+006 1.000026786123e+006 1.000892008089e+006 1.000860164906e+006 1.000758607629e+006 1.000690910255e+006 1.000584336556e+006 1.000733537147e+006 1.000709941901e+006 1.000667910691e+006 1.000268041625e+006 1.000484165570e+006 1.000163360257e+006 1.000543295727e+006 1.000324850600e+006 1.000190806428e+006 1.000333735268e+006 1.000270738450e+006 1.000325106134e+006 1.000883793701e+006 1.000904757599e+006 1.000337307186e+006 1.000751872001e+006 1.000326774505e+006 1.000516655044e+006 1.000765232550e+006 1.000000000000e+006 1.000000000000e+006 9.998530506407e+005 1.000786104731e+006 1.000997030626e+006 1.000260246921e+006 1.000834216975e+006 1.000839686243e+006 1.000072343272e+006 1.000951692748e+006 1.000461636667e+006 1.000900176926e+006 1.000242609648e+006 1.000189824577e+006 1.000176375848e+006 1.000035458424e+006 1.000374160777e+006 1.000259977643e+006 1.000850587375e+006 1.000984657926e+006 1.000493131886e+006 1.000220547494e+006 1.000240930186e+006 1.000862329995e+006 1.000825602171e+006 1.000795427572e+006 1.000439360030e+006 1.000437268176e+006 1.001001202552e+006 1.000456839025e+006 1.000457070152e+006 1.000316775246e+006 1.000406041078e+006 1.000846759413e+006 1.000281009223e+006 1.000162551471e+006 1.000012973040e+006 1.000355159688e+006 1.000607784597e+006 1.000269872796e+006 1.000499648084e+006 1.000181378467e+006 1.000172906605e+006 1.000251089968e+006 1.000943224886e+006 1.000718317046e+006 1.000221504390e+006 1.000907107920e+006 1.000524432421e+006 1.000916098998e+006 1.000622050707e+006 1.000518195925e+006 9.996572227502e+005 1.000935667016e+006 1.000813657417e+006 1.000031152307e+006 1.000343456789e+006 1.000973082702e+006 1.000492596006e+006 1.000491893444e+006 1.001004082724e+006 1.000690494956e+006 1.000530424088e+006 1.000292298861e+006 1.000927582169e+006 1.000808212156e+006 1.000063792705e+006 1.000416540333e+006 1.000486078446e+006 1.000697910067e+006 1.000331338983e+006 1.000255963202e+006 1.000936162380e+006 1.000725471904e+006 1.000933733698e+006 1.000962231239e+006 1.000712583861e+006 1.000015644268e+006 1.000158653504e+006 1.000383500149e+006 1.000838384637e+006 9.999865060641e+005 1.000322344010e+006 1.000007159466e+006 1.000502493499e+006 1.000225298652e+006 1.000761836652e+006 1.001039820655e+006 1.000811896827e+006 1.000801995513e+006 1.000876274433e+006 1.000842796745e+006 1.000857910118e+006 1.000950185690e+006 1.000860563572e+006 1.000497466558e+006 1.000375005225e+006 1.000208720279e+006 1.000366332269e+006 1.000766318487e+006 1.000379564747e+006 1.000898572236e+006 1.000150874777e+006 1.000779963209e+006 1.000816841778e+006 1.000951290996e+006 1.000383924045e+006 1.000324609813e+006 1.000373142966e+006 1.000455500410e+006 1.000455199827e+006 1.000546419543e+006 1.000542613984e+006 1.000924329268e+006 1.000785800578e+006 1.000322772438e+006 1.000328444921e+006 1.000335030025e+006 1.000348638332e+006 1.000772670863e+006 1.000794180730e+006 
        </DataArray>
        <DataArray type="Float64" Name="MEAN_PRESSURE" format="ascii">