<?xml version="1.0"?>
<VTKFile type="UnstructuredGrid" version="0.1" byte_order="LittleEndian">
  <UnstructuredGrid>
    <Piece NumberOfPoints="963" NumberOfCells="1758">
      <Points>
        <DataArray type="Float64" NumberOfComponents="3" format="ascii">
          1.600262034769e+002 1.257989505921e+001 0.000000000000e+000
          1.635346199106e+002 2.000000000000e+001 0.000000000000e+000
          1.554515002484e+002 2.000000000000e+001 0.000000000000e+000
          3.459306441575e+000 1.667621982453e+001 0.000000000000e+000
          3.062266634850e+000 1.705413688405e+001 0.000000000000e+000
          2.873380769063e+000 1.650527725632e+001 0.000000000000e+000
          1.514088444034e+000 1.865189448105e+001 0.000000000000e+000
          1.967902677551e+000 1.834103489750e+001 0.000000000000e+000
          2.034564522234e+000 1.890806711991e+001 0.000000000000e+000
          2.478275273162e+000 1.702762299110e+001 0.000000000000e+000
          2.952621433467e+000 1.774357373580e+001 0.000000000000e+000
          2.237893542067e+000 1.782457469610e+001 0.000000000000e+000
          3.313583922780e+000 3.274674552047e+000 0.000000000000e+000
          2.561432712787e+000 3.156040447793e+000 0.000000000000e+000
          3.047531989640e+000 2.714594415171e+000 0.000000000000e+000
          2.750804692284e+000 3.936058190693e+000 0.000000000000e+000
          2.599039179818e+000 2.451529939148e+000 0.000000000000e+000
          3.139686649742e+000 2.186924052088e+000 0.000000000000e+000
          1.919984553221e+000 3.358010194268e+000 0.000000000000e+000
          1.960900304591e+000 2.773319745251e+000 0.000000000000e+000
          1.894565400391e+000 1.733316857565e+001 0.000000000000e+000
          0.000000000000e+000 1.538461538461e+001 0.000000000000e+000
          5.816229249735e-001 1.567919247147e+001 0.000000000000e+000
          0.000000000000e+000 1.589743589743e+001 0.000000000000e+000
          9.766405669483e+001 2.000000000000e+001 0.000000000000e+000
          1.010672711393e+002 1.500000000000e+001 0.000000000000e+000
          1.029329279907e+002 2.000000000000e+001 0.000000000000e+000
          9.588503785413e+001 1.500000000000e+001 0.000000000000e+000
          1.039231647117e+002 1.000000000000e+001 0.000000000000e+000
          9.860830811271e+001 1.000000000000e+001 0.000000000000e+000
          1.010672711397e+002 5.000000000000e+000 0.000000000000e+000
          9.766405669557e+001 0.000000000000e+000 0.000000000000e+000
          1.029329279915e+002 0.000000000000e+000 0.000000000000e+000
          9.588503785449e+001 5.000000000000e+000 0.000000000000e+000
          7.892434178002e+001 2.000000000000e+001 0.000000000000e+000
          8.173808356948e+001 1.500000000000e+001 0.000000000000e+000
          8.328058896910e+001 2.000000000000e+001 0.000000000000e+000
          7.679274808893e+001 1.514423393202e+001 0.000000000000e+000
          7.970503892166e+001 1.000000000000e+001 0.000000000000e+000
          8.409930620613e+001 1.000000000000e+001 0.000000000000e+000
          8.173808356980e+001 5.000000000000e+000 0.000000000000e+000
          7.892434178065e+001 0.000000000000e+000 0.000000000000e+000
          8.328058896976e+001 0.000000000000e+000 0.000000000000e+000
          7.679274808925e+001 4.855766067979e+000 0.000000000000e+000
          1.084583939765e+002 2.000000000000e+001 0.000000000000e+000
          1.122011528880e+002 1.500000000000e+001 0.000000000000e+000
          1.142529496098e+002 2.000000000000e+001 0.000000000000e+000
          1.065018792644e+002 1.500000000000e+001 0.000000000000e+000
          1.153419838410e+002 1.000000000000e+001 0.000000000000e+000
          1.094968549120e+002 1.000000000000e+001 0.000000000000e+000
          1.122011528884e+002 5.000000000000e+000 0.000000000000e+000
          1.084583939773e+002 0.000000000000e+000 0.000000000000e+000
          1.142529496106e+002 0.000000000000e+000 0.000000000000e+000
          1.065018792648e+002 5.000000000000e+000 0.000000000000e+000
          1.181779812237e+002 1.500000000000e+001 0.000000000000e+000
          1.203297004775e+002 2.000000000000e+001 0.000000000000e+000
          1.214717707847e+002 1.000000000000e+001 0.000000000000e+000
          1.181779812242e+002 5.000000000000e+000 0.000000000000e+000
          1.203297004784e+002 0.000000000000e+000 0.000000000000e+000
          7.477039199538e+001 2.000000000000e+001 0.000000000000e+000
          7.551483469771e+001 1.000000000000e+001 0.000000000000e+000
          7.296959467356e+001 1.385646386579e+001 0.000000000000e+000
          7.477039199599e+001 0.000000000000e+000 0.000000000000e+000
          7.296959467379e+001 6.143536134207e+000 0.000000000000e+000
          6.918477198508e+001 1.366665532880e+001 0.000000000000e+000
          6.746477463053e+001 1.000000000000e+001 0.000000000000e+000
          7.151921701478e+001 1.000000000000e+001 0.000000000000e+000
          6.918477198529e+001 6.333344671202e+000 0.000000000000e+000
          9.263986346551e+001 2.000000000000e+001 0.000000000000e+000
          9.094345943471e+001 1.500000000000e+001 0.000000000000e+000
          9.354026529380e+001 1.000000000000e+001 0.000000000000e+000
          9.263986346623e+001 0.000000000000e+000 0.000000000000e+000
          9.094345943506e+001 5.000000000000e+000 0.000000000000e+000
          1.244344522558e+002 1.503312574389e+001 0.000000000000e+000
          1.267023895482e+002 2.000000000000e+001 0.000000000000e+000
          1.285510028831e+002 1.020485663255e+001 0.000000000000e+000
          1.244344522563e+002 5.033125743893e+000 0.000000000000e+000
          1.267023895491e+002 0.000000000000e+000 0.000000000000e+000
          8.623136018348e+001 1.500000000000e+001 0.000000000000e+000
          8.784898578901e+001 2.000000000000e+001 0.000000000000e+000
          8.870757443665e+001 1.000000000000e+001 0.000000000000e+000
          8.623136018382e+001 5.000000000000e+000 0.000000000000e+000
          8.784898578969e+001 0.000000000000e+000 0.000000000000e+000
          4.872472752737e+000 0.000000000000e+000 0.000000000000e+000
          4.204479229380e+000 6.412840757122e-001 0.000000000000e+000
          4.157376851380e+000 0.000000000000e+000 0.000000000000e+000
          5.192892237051e+000 7.280355562789e-001 0.000000000000e+000
          1.306630304579e+000 6.212843344151e-001 0.000000000000e+000
          1.050228457081e+000 0.000000000000e+000 0.000000000000e+000
          1.614006202528e+000 0.000000000000e+000 0.000000000000e+000
          1.266763055794e+001 1.554696422866e+001 0.000000000000e+000
          1.263589100638e+001 1.657720348306e+001 0.000000000000e+000
          1.174268578662e+001 1.633018318031e+001 0.000000000000e+000
          6.588835695415e+000 7.505681085529e+000 0.000000000000e+000
          6.456871838389e+000 6.658671683861e+000 0.000000000000e+000
          7.208099140752e+000 7.038822846307e+000 0.000000000000e+000
          4.412623338166e+000 9.138856431549e+000 0.000000000000e+000
          4.024185797397e+000 8.708923235630e+000 0.000000000000e+000
          4.601447447338e+000 8.507292699647e+000 0.000000000000e+000
          5.325995059827e-001 6.308307298123e+000 0.000000000000e+000
          0.000000000000e+000 6.666666666655e+000 0.000000000000e+000
          0.000000000000e+000 6.153846153835e+000 0.000000000000e+000
          3.986461521768e+000 8.146114708182e+000 0.000000000000e+000
          2.411603373059e+000 6.510912162016e+000 0.000000000000e+000
          1.807525763324e+000 6.938080373464e+000 0.000000000000e+000
          1.686779352680e+000 6.178928843543e+000 0.000000000000e+000
          2.510760620997e+000 7.229076682239e+000 0.000000000000e+000
          3.166991983438e+000 6.906135870389e+000 0.000000000000e+000
          3.452788915829e+000 6.276851216781e+000 0.000000000000e+000
          3.340122000742e+000 5.656365440432e+000 0.000000000000e+000
          4.047936562877e+000 5.873561587395e+000 0.000000000000e+000
          1.802463974828e+000 1.292744708026e+001 0.000000000000e+000
          1.383967161336e+000 1.330299552906e+001 0.000000000000e+000
          1.329690820161e+000 1.266495373033e+001 0.000000000000e+000
          2.267922292389e+000 1.431116835808e+001 0.000000000000e+000
          2.854613987538e+000 1.466581611369e+001 0.000000000000e+000
          2.339869278674e+000 1.493776402241e+001 0.000000000000e+000
          4.690956878046e+000 3.115726773737e+000 0.000000000000e+000
          4.014773718330e+000 2.850429494150e+000 0.000000000000e+000
          4.643493383296e+000 2.293565471327e+000 0.000000000000e+000
          5.186083944243e+000 1.661927139510e+000 0.000000000000e+000
          5.452965511439e+000 2.679881546544e+000 0.000000000000e+000
          5.360460104304e+000 3.539902157655e+000 0.000000000000e+000
          6.197986304192e+000 3.115706366113e+000 0.000000000000e+000
          7.929356606585e-001 1.634705420870e+001 0.000000000000e+000
          1.222819867503e+000 1.599517159419e+001 0.000000000000e+000
          1.215723647926e+000 1.546209040954e+001 0.000000000000e+000
          1.770601276021e+000 1.521217632514e+001 0.000000000000e+000
          1.242830150061e+000 1.493919370237e+001 0.000000000000e+000
          1.166444124506e+000 4.610115997312e+000 0.000000000000e+000
          1.851620547934e+000 4.486892013458e+000 0.000000000000e+000
          1.494152702314e+000 5.145235789232e+000 0.000000000000e+000
          1.353088107040e+000 4.090803091641e+000 0.000000000000e+000
          3.802567455935e+000 5.084697985980e+000 0.000000000000e+000
          1.014840185783e+000 5.494768572296e+000 0.000000000000e+000
          8.831064584820e-001 5.109311190608e+000 0.000000000000e+000
          1.727903958959e+000 1.618384478933e+001 0.000000000000e+000
          1.343261525342e+000 1.651800241408e+001 0.000000000000e+000
          3.308120627291e+000 8.593311644828e+000 0.000000000000e+000
[...]
      <PointData Scalars="LIQUID_PRESSURE">
        <DataArray type="Float64" Name="LIQUID_PRESSURE" format="ascii">
          1.002437884595e+006 1.002708728219e+006 1.001377650207e+006 1.000029047684e+006 1.000181176621e+006 1.000384114442e+006 1.000319994962e+006 1.000935856429e+006 1.000981238149e+006 1.000962775791e+006 1.000280332804e+006 1.001020435485e+006 9.999561712624e+005 1.000800190126e+006 1.000163184669e+006 1.000465285791e+006 1.000791172488e+006 1.000032434145e+006 1.000907183066e+006 1.000977621526e+006 1.000811870919e+006 1.000861642856e+006 1.000449593560e+006 1.000854688599e+006 1.000328557632e+006 1.000311562105e+006 1.000293185311e+006 1.000335899259e+006 1.000286119214e+006 1.000323284612e+006 1.000311594022e+006 1.000328576032e+006 1.000293696605e+006 1.000335989995e+006 1.000410450779e+006 1.000394071665e+006 1.000395274530e+006 1.000414570564e+006 1.000416292810e+006 1.000387086660e+006 1.000394180295e+006 1.000410540561e+006 1.000395251246e+006 1.000414122307e+006 1.000254832530e+006 1.000222066962e+006 1.000204055364e+006 1.000266045269e+006 1.000195728491e+006 1.000247183880e+006 1.000223163308e+006 1.000255608411e+006 1.000205744795e+006 1.000266669961e+006 1.000175415379e+006 1.000152269372e+006 1.000145858245e+006 1.000177446810e+006 1.000158720253e+006 1.000429012796e+006 1.000405609352e+006 1.000407028545e+006 1.000428784166e+006 1.000407767132e+006 1.000390928388e+006 1.000407686803e+006 1.000466013661e+006 1.000391186698e+006 1.000368163258e+006 1.000362610244e+006 1.000361401606e+006 1.000368188800e+006 1.000362599748e+006 1.000117177784e+006 1.000098645982e+006 1.000063898618e+006 1.000115360342e+006 1.000094769626e+006 1.000397341660e+006 1.000370031653e+006 1.000370819550e+006 1.000397324333e+006 1.000370034601e+006 1.000686266374e+006 1.000873073065e+006 1.000743853944e+006 1.000222947211e+006 1.000075998299e+006 9.999784946973e+005 1.000510442272e+006 1.000544237598e+006 1.000333360286e+006 1.000419498446e+006 1.001017803048e+006 1.000975510187e+006 1.000425237682e+006 1.000992006595e+006 1.000686331600e+006 1.000801312542e+006 1.000456307690e+006 1.000923307985e+006 1.000882704206e+006 1.000660325535e+006 1.000930623015e+006 1.000756701427e+006 1.000619245571e+006 1.000784192041e+006 9.999840778282e+005 1.000006690277e+006 9.999623644171e+005 1.000769234135e+006 1.000710384412e+006 1.000123411345e+006 1.000067460879e+006 1.001041561275e+006 1.000387465432e+006 1.001014031978e+006 1.000746467593e+006 1.000696353221e+006 1.000783762121e+006 1.000211923335e+006 1.000034161808e+006 9.999926267178e+005 1.000667771036e+006 1.000238157140e+006 9.999623148916e+005 9.999615697354e+005 1.000668062908e+006 9.999690382239e+005 9.999713172771e+005 1.000716508586e+006 1.000251586455e+006 1.000047020439e+006 1.000328588082e+006 9.999898412455e+005 1.000093803437e+006 1.000558795469e+006 1.000023296221e+006 9.999565782805e+005 1.000611445040e+006 9.999616719726e+005 1.000163153115e+006 1.000213935665e+006 1.000011607313e+006 1.000232306865e+006 1.000055153956e+006 1.000109398962e+006 1.000228205354e+006 1.000201096143e+006 1.000325638608e+006 1.000774113067e+006 1.000768894070e+006 1.000805027838e+006 9.999911854055e+005 1.000534406099e+006 1.001016946668e+006 1.000700187583e+006 1.000682321140e+006 1.000209382464e+006 1.000007674031e+006 1.000412013957e+006 1.000217074207e+006 1.000083129913e+006 1.000081673134e+006 1.000127715172e+006 1.000613174941e+006 1.000784881307e+006 1.000755655234e+006 1.000793727791e+006 1.001002728274e+006 1.000374770623e+006 1.000915325831e+006 1.000240107814e+006 9.999876071260e+005 1.000629935192e+006 1.000025834983e+006 1.000524363006e+006 1.000736738654e+006 1.000816094703e+006 9.999532079740e+005 1.000747076291e+006 1.000697501144e+006 1.000223742401e+006 1.000962588509e+006 1.000196137656e+006 1.000360306951e+006 9.999897989673e+005 1.000046520944e+006 1.000645677438e+006 1.001003373010e+006 1.000462869679e+006 1.000834856700e+006 1.001022070895e+006 1.001013944062e+006 1.000030743653e+006 1.001005114027e+006 1.000236910021e+006 1.000838422710e+006 1.000083999063e+006 1.000032319594e+006 1.000783943760e+006 1.000965421872e+006 1.000583976849e+006 9.999732831213e+005 9.999651405230e+005 9.999607536579e+005 1.000436857079e+006 9.999917422374e+005 1.000040370480e+006 1.000107319783e+006 9.999915509722e+005 1.000390729315e+006 1.000989216793e+006 1.000494723108e+006 1.000490956146e+006 1.000725363563e+006 1.001006833573e+006 9.999900390856e+005 1.000422960411e+006 1.000042226539e+006 1.000916479233e+006 1.000289955960e+006 1.001013132536e+006 9.999936300172e+005 1.000331704833e+006 1.000010062871e+006 1.000751192946e+006 1.000904995746e+006 1.000095839348e+006 1.000942914802e+006 9.999627612696e+005 1.000013260553e+006 1.000562611973e+006 1.000051694954e+006 1.000403439900e+006 1.000269110093e+006 1.000731540880e+006 1.000713440058e+006 9.999418839056e+005 1.001075670301e+006 1.000454401661e+006 1.000472571469e+006 1.000467873571e+006 1.000917259826e+006 1.000860928189e+006 1.000893941989e+006 1.000911183137e+006 1.000588529880e+006 1.000699937388e+006 1.000641618592e+006 9.999815775307e+005 1.000416193414e+006 1.000722798435e+006 1.000749898429e+006 1.000761655292e+006 1.000781535794e+006 1.000703250619e+006 1.000774947537e+006 1.000647562574e+006 1.000776499846e+006 1.000741713638e+006 1.000795196227e+006 1.000770773195e+006 1.000362257409e+006 1.000421690440e+006 1.000532828457e+006 1.000507386588e+006 1.000506553854e+006 1.000379171610e+006 1.000402594991e+006 1.000370179127e+006 1.000562299055e+006 1.000512255546e+006 1.000518240337e+006 1.000383615251e+006 1.000410917219e+006 1.000363562703e+006 1.000487004409e+006 1.000610942592e+006 1.000485066356e+006 1.000390696070e+006 1.000364431727e+006 1.000414717837e+006 1.000477698888e+006 1.000610023838e+006 1.000480840967e+006 1.000392155693e+006 1.000443716841e+006 1.000481889290e+006 1.000470133992e+006 1.000458988931e+006 1.000446116523e+006 1.000451826403e+006 1.000481900595e+006 1.000443723359e+006 1.000470122801e+006 1.000458967285e+006 1.000446121897e+006 1.000451814698e+006 1.000387146880e+006 1.000574985157e+006 1.000411097868e+006 1.000461771744e+006 1.000382712349e+006 1.000434397986e+006 1.000574978698e+006 1.000387185223e+006 1.000411073259e+006 1.000461759868e+006 1.000382713163e+006 1.000434399011e+006 1.000560142687e+006 1.000488240357e+006 1.000359208407e+006 1.000405937997e+006 1.000488192504e+006 1.000560060380e+006 1.000359168784e+006 1.000405568760e+006 1.000532052689e+006 1.000363856352e+006 1.000612641965e+006 1.000409650566e+006 1.000573615713e+006 1.000523293813e+006 1.000363788819e+006 1.000532045365e+006 1.000612798455e+006 1.000409674704e+006 1.000573632094e+006 1.000523295698e+006 1.000369157146e+006 1.000348985240e+006 1.000410446349e+006 1.000368179138e+006 1.000349294960e+006 1.000410149797e+006 1.000475045885e+006 1.000534077419e+006 1.000462928665e+006 1.000475035580e+006 1.000534064180e+006 1.000462909923e+006 1.000367052996e+006 1.000367186312e+006 1.000540706187e+006 1.000454240304e+006 1.000379959484e+006 1.000391504561e+006 1.000540024879e+006 1.000391689554e+006 1.000491306476e+006 1.000437584173e+006 1.000450354338e+006 1.000468229318e+006 1.000491302287e+006 1.000468222791e+006 1.000410947359e+006 1.000482840545e+006 1.000412219783e+006 1.000472198548e+006 1.000576422002e+006 1.000575920093e+006 1.000471841225e+006 1.000541138373e+006 1.000358290368e+006 1.000358278302e+006 1.000489022503e+006 1.000403701733e+006 1.000489031755e+006 1.000503430797e+006 1.000478514201e+006 1.000503419476e+006 1.000486701273e+006 1.000486699629e+006 1.000441450394e+006 1.000505805263e+006 1.000505796549e+006 1.000492934202e+006 1.000408667974e+006 1.000492843702e+006 1.000439442293e+006 1.000409189677e+006 1.000425150400e+006 1.000405171204e+006 1.000445673257e+006 1.000369076357e+006 1.000443790457e+006 1.000364736601e+006 1.000183888676e+006 1.000205792156e+006 1.000515375313e+006 1.000619166115e+006 1.000323389794e+006 1.000642342486e+006 1.001030312932e+006 1.000431092431e+006 1.000966626292e+006 1.000709003918e+006 1.000367585467e+006 1.000525672859e+006 1.000588164731e+006 1.000149469204e+006 1.001223537389e+006 1.000281660690e+006 1.003536391743e+006 1.000933047564e+006 1.000287943760e+006 1.000773014306e+006 1.000885867492e+006 1.000464001711e+006 1.000801712386e+006 9.999307443935e+005 1.000575862034e+006 1.000454395428e+006 1.001014809522e+006 1.000641997933e+006 1.000249654440e+006 1.000249979329e+006 1.000496349448e+006 1.000998633332e+006 1.000195496510e+006 1.000931564871e+006 1.000555735143e+006 1.000845307091e+006 1.000145210300e+006 1.000212998425e+006 1.000221660800e+006 1.000737492843e+006 1.000173184167e+006 1.000884771497e+006 1.000522619182e+006 1.000704968494e+006 1.000871011232e+006 1.000641832591e+006 1.000357747021e+006 1.000664311594e+006 1.000324282112e+006 9.999724943865e+005 1.000537486359e+006 1.000913750312e+006 1.000493007768e+006 1.000084214460e+006 1.000071974636e+006 1.000381744828e+006 1.000441190795e+006 1.000445327254e+006 1.000735586878e+006 1.000730498546e+006 1.000902256727e+006 1.000548249292e+006 1.000679535237e+006 1.000105208786e+006 1.000953834533e+006 1.000036214641e+006 1.000528423218e+006 1.000454344127e+006 1.000535673861e+006 1.000582082206e+006 9.999926556147e+005 1.000148675125e+006 1.000895379493e+006 1.000023467027e+006 1.000103764309e+006 1.000667932194e+006 1.000650289032e+006 1.000137497662e+006 1.000173452308e+006 1.000135432373e+006 1.000423346878e+006 1.000138650020e+006 1.000614123478e+006 1.000707347767e+006 1.000655841650e+006 1.000140805335e+006 1.000335363039e+006 1.000827241055e+006 1.000919258227e+006 1.000588574810e+006 1.000234674344e+006 1.000289491605e+006 1.000055429941e+006 9.999670429317e+005 1.000675608302e+006 1.000924688823e+006 9.999225203416e+005 1.000008026606e+006 1.000667732121e+006 1.001028504816e+006 1.000551650161e+006 1.000061624760e+006 1.000738548845e+006 1.000859848764e+006 1.000537909719e+006 1.000168208968e+006 1.000956158161e+006 1.000425764484e+006 1.000507811836e+006 1.000413836056e+006 1.000424051367e+006 9.999964775514e+005 1.000140015009e+006 1.000645448176e+006 1.000966481419e+006 1.000450561508e+006 1.000024241269e+006 1.000306705011e+006 1.000699030319e+006 1.000702282415e+006 1.000966036773e+006 1.000186319888e+006 1.000067492738e+006 1.000903851838e+006 1.000850185789e+006 1.000857027282e+006 1.000512884318e+006 9.999658760097e+005 1.000550761420e+006 1.000977212164e+006 1.000435271116e+006 1.000961821665e+006 1.000966643538e+006 1.000685941635e+006 1.000038341900e+006 1.000926240665e+006 1.000920036321e+006 9.999517700870e+005 1.000144054113e+006 1.000704691871e+006 1.000468337465e+006 1.000196907419e+006 1.000277454617e+006 1.000935959638e+006 1.000462973683e+006 1.000622621964e+006 1.000959100106e+006 1.000164685135e+006 1.000387285753e+006 1.000670824814e+006 1.000244785130e+006 1.000333163370e+006 1.000785948087e+006 1.000150357219e+006 1.000264880524e+006 1.000170785622e+006 1.000972770026e+006 1.001030806449e+006 1.000041580344e+006 1.000105654824e+006 1.000227665094e+006 1.000755599970e+006 1.000443207059e+006 1.000474421010e+006 1.001000271682e+006 1.000752317890e+006 1.000454445813e+006 1.000584385086e+006 1.000923949460e+006 1.000928734433e+006 1.000634885371e+006 1.000576961990e+006 1.000171827550e+006 1.000412257175e+006 1.000123234152e+006 1.001026405435e+006 9.999197471368e+005 1.000746825875e+006 1.000545713582e+006 1.000233486151e+006 1.000076436685e+006 1.000825492921e+006 1.000059304912e+006 9.999531265303e+005 1.000393995407e+006 1.000863370658e+006 1.000402250239e+006 1.000776201781e+006 1.000557173434e+006 1.000382107617e+006 1.000916155893e+006 1.000190609151e+006 9.999204630522e+005 1.000883775403e+006 1.000319808375e+006 1.000945985257e+006 1.000113857695e+006 1.000855563959e+006 1.000462132237e+006 9.999495589805e+005 1.000876748120e+006 1.000245292504e+006 1.000939602586e+006 1.000060990054e+006 1.000480050739e+006 1.000693062649e+006 1.000033173532e+006 1.000053274411e+006 1.000742266630e+006 1.002326746357e+006 1.002186574561e+006 1.001660853767e+006 1.000262149036e+006 1.000555671312e+006 1.000924229895e+006 1.000707021145e+006 1.000133887461e+006 1.000924351510e+006 1.000302551953e+006 9.999861752462e+005 1.000865267275e+006 1.000371654046e+006 1.000502371014e+006 1.000505801584e+006 1.000555061292e+006 1.000909368359e+006 1.000484803293e+006 1.000336030439e+006 1.000775801677e+006 1.000007699119e+006 1.000721656551e+006 1.000230120858e+006 1.000762699147e+006 1.000316604648e+006 1.000666225928e+006 1.000322821826e+006 1.000273989203e+006 1.003074115494e+006 1.003280076593e+006 1.000692970016e+006 9.999743057021e+005 1.000052996031e+006 1.000603704667e+006 1.000077259647e+006 1.000401229595e+006 1.000443659419e+006 1.000510349188e+006 1.000442343441e+006 1.000506577866e+006 1.000006670539e+006 1.000306713815e+006 1.000030855347e+006 9.999806833943e+005 1.000337778959e+006 1.000497064015e+006 1.000565219464e+006 1.000496830225e+006 1.000870725261e+006 1.000409721762e+006 1.000245295241e+006 1.000520320721e+006 1.000290878710e+006 1.000003964008e+006 1.000815068529e+006 1.000970935108e+006 9.999927923295e+005 9.999245861232e+005 1.000981108243e+006 9.999356219323e+005 1.000212722454e+006 1.000767619935e+006 1.003274408581e+006 1.002625539529e+006 1.000728892079e+006 1.000956576657e+006 1.000590937615e+006 1.000801009261e+006 1.000725356072e+006 1.000682845661e+006 1.000174550603e+006 1.000347058163e+006 1.000346803418e+006 1.000765212066e+006 1.000700127247e+006 1.000198907529e+006 1.000710838316e+006 1.000697508771e+006 1.000781794115e+006 1.000909583635e+006 1.000567553427e+006 1.000075616955e+006 1.001031290703e+006 1.000861787519e+006 1.000821269116e+006 1.000936955611e+006 1.000861712836e+006 1.000262007449e+006 1.000689647362e+006 1.000732415716e+006 1.000777089108e+006 1.000598776912e+006 1.000290383871e+006 1.000468637263e+006 1.000554932855e+006 1.000650180190e+006 1.000523378388e+006 1.000464884337e+006 1.000660944320e+006 1.000467621450e+006 1.000426976044e+006 1.000453090019e+006 1.000310592131e+006 1.000414225448e+006 1.000434133278e+006 1.000573163737e+006 1.000361929261e+006 1.000510126700e+006 1.000353218052e+006 1.000554006753e+006 1.000455553130e+006 1.000568027656e+006 1.000572469020e+006 1.000568384894e+006 1.000563583305e+006 1.000429918967e+006 1.000395592603e+006 1.000275488010e+006 1.000395408370e+006 1.000277676341e+006 1.000708113012e+006 1.000437830317e+006 1.000626572276e+006 1.000442741992e+006 1.000634980501e+006 1.000492420229e+006 1.000421355373e+006 1.000504480294e+006 1.000434939996e+006 1.000432502986e+006 1.000491829822e+006 1.000503739611e+006 1.000407269934e+006 1.000510733207e+006 1.000610094662e+006 1.000506940064e+006 1.000636444317e+006 1.000316973279e+006 1.000377676577e+006 1.000310685596e+006 1.000365169258e+006 1.000602212408e+006 1.000521702454e+006 1.000602770254e+006 1.000522878549e+006 1.000487392378e+006 1.000262415674e+006 1.000700905044e+006 1.000652108986e+006 1.000502780602e+006 1.000414854510e+006 1.000264393026e+006 1.000488631178e+006 1.000696136940e+006 1.000652976926e+006 1.000503570651e+006 1.000415653217e+006 1.000383577179e+006 1.000304445253e+006 1.000494392676e+006 1.000385698035e+006 1.000300053536e+006 1.000498453434e+006 1.000730684505e+006 1.000573090411e+006 1.000644749755e+006 1.000728850813e+006 1.000551557712e+006 1.000645883561e+006 1.000164956575e+006 1.000530550940e+006 1.000181519608e+006 1.000165526265e+006 1.000559717141e+006 1.000198562115e+006 1.000805234446e+006 1.000222045879e+006 1.000776229723e+006 1.000211491553e+006 1.000344336200e+006 1.000671788313e+006 1.000344170569e+006 1.000668204283e+006 1.000401743461e+006 1.000513527306e+006 1.000473641614e+006 1.000403792236e+006 1.000512977636e+006 1.000473970607e+006 1.000360749497e+006 1.000573124524e+006 1.000360370546e+006 1.000572364679e+006 1.000595229558e+006 1.000598046857e+006 1.000535326961e+006 1.000534329969e+006 1.000249975954e+006 1.000242569059e+006 1.000225452142e+006 1.000709267401e+006 1.000176326597e+006 1.000514142142e+006 1.000691445505e+006 1.000665197959e+006 1.000249395691e+006 1.000258566911e+006 1.000270668537e+006 1.000680644123e+006 1.000344854206e+006 1.000682678977e+006 1.000343516393e+006 1.000513534249e+006 1.000220054442e+006 1.000498828232e+006 1.000213534560e+006 1.000202062851e+006 1.000752460630e+006 1.000302980135e+006 1.000013141903e+006 1.000860281391e+006 1.000818136702e+006 1.000719264164e+006 1.000656483187e+006 1.000553365067e+006 1.000700472255e+006 1.000678829579e+006 1.000637994995e+006 1.000249512745e+006 1.000455050355e+006 1.000155780075e+006 1.000518786593e+006 1.000306402269e+006 1.000173882100e+006 1.000314130887e+006 1.000245492638e+006 1.000312360874e+006 1.000842333860e+006 1.000864865905e+006 1.000316660422e+006 1.000711145532e+006 1.000306222914e+006 1.000503724785e+006 1.000726675579e+006 1.000000000000e+006 1.000000000000e+006 1.000879429379e+006 1.000754855537e+006 1.000947477417e+006 1.000236567009e+006 1.000794752970e+006 1.000798086114e+006 1.000059806120e+006 1.000912332612e+006 1.000439499560e+006 1.000859412730e+006 1.000222078370e+006 1.000174047897e+006 1.000163058552e+006 1.000021183722e+006 1.000356782405e+006 1.000235136292e+006 1.000813178175e+006 1.000943064269e+006 1.000460380677e+006 1.000204175187e+006 1.000221847270e+006 1.000828526418e+006 1.000786966612e+006 1.000761290362e+006 1.000422196869e+006 1.000420540491e+006 1.000951504677e+006 1.000432245681e+006 1.000432443216e+006 1.000286105859e+006 1.000389066566e+006 1.000804546293e+006 1.000262339413e+006 1.000144757130e+006 1.000008965608e+006 1.000328837431e+006 1.000579776872e+006 1.000250112942e+006 1.000470009795e+006 1.000167092775e+006 1.000325970375e+006 1.000192120168e+006 1.000897178716e+006 1.000685289094e+006 1.000649343416e+006 1.000864864851e+006 1.000515182560e+006 1.000870846907e+006 1.000593217826e+006 1.000491452954e+006 1.001739066545e+006 1.000890175734e+006 1.000766989146e+006 1.000016587880e+006 1.000327501243e+006 1.000929472873e+006 1.000465926307e+006 1.000465457247e+006 1.000962450550e+006 1.000672617319e+006 1.000500989703e+006 1.000264145882e+006 1.000891618152e+006 1.000781424583e+006 1.000052516579e+006 1.000393083333e+006 1.000453655668e+006 1.000672009468e+006 1.000309708392e+006 1.000243300792e+006 1.000891235684e+006 1.000697033341e+006 1.000886112688e+006 1.000916976314e+006 1.000677959835e+006 1.000008097017e+006 1.000144243305e+006 1.000187208066e+006 1.000804141795e+006 1.002644021673e+006 1.000299874101e+006 1.000000677251e+006 1.000476057850e+006 1.000210398330e+006 1.000733223431e+006 1.000998910050e+006 1.000776969882e+006 1.000775485202e+006 1.000828242060e+006 1.000797394877e+006 1.000809299249e+006 1.000906031136e+006 1.000822057814e+006 1.000233023496e+006 1.000011122004e+006 1.000526378966e+006 1.000062306782e+006 1.000739714180e+006 1.000107967371e+006 1.000882493769e+006 1.000147228291e+006 1.000757460681e+006 1.000766467198e+006 1.000910396498e+006 1.000121843377e+006 1.000304205100e+006 1.000353024572e+006 1.000434924841e+006 1.000434673190e+006 1.000512467757e+006 1.000508846598e+006 1.000877555542e+006 1.000761508673e+006 1.000310276716e+006 1.000316083327e+006 1.000327419693e+006 1.000340024303e+006 1.000747814686e+006 1.000747464291e+006 
        </DataArray>
        <DataArray type="Float64" Name="MEAN_PRESSURE" format="ascii">