<?xml version="1.0"?>
<VTKFile type="UnstructuredGrid" version="0.1" byte_order="LittleEndian">
  <UnstructuredGrid>
    <Piece NumberOfPoints="963" NumberOfCells="1758">
      <Points>
        <DataArray type="Float64" NumberOfComponents="3" format="ascii">
          1.600262034769e+002 1.257989505921e+001 0.000000000000e+000
          1.635346199106e+002 2.000000000000e+001 0.000000000000e+000
          1.554515002484e+002 2.000000000000e+001 0.000000000000e+000
          3.459306441575e+000 1.667621982453e+001 0.000000000000e+000
          3.062266634850e+000 1.705413688405e+001 0.000000000000e+000
          2.873380769063e+000 1.650527725632e+001 0.000000000000e+000
          1.514088444034e+000 1.865189448105e+001 0.000000000000e+000
          1.967902677551e+000 1.834103489750e+001 0.000000000000e+000
          2.034564522234e+000 1.890806711991e+001 0.000000000000e+000
          2.478275273162e+000 1.702762299110e+001 0.000000000000e+000
          2.952621433467e+000 1.774357373580e+001 0.000000000000e+000
          2.237893542067e+000 1.782457469610e+001 0.000000000000e+000
          3.313583922780e+000 3.274674552047e+000 0.000000000000e+000
          2.561432712787e+000 3.156040447793e+000 0.000000000000e+000
          3.047531989640e+000 2.714594415171e+000 0.000000000000e+000
          2.750804692284e+000 3.936058190693e+000 0.000000000000e+000
          2.599039179818e+000 2.451529939148e+000 0.000000000000e+000
          3.139686649742e+000 2.186924052088e+000 0.000000000000e+000
          1.919984553221e+000 3.358010194268e+000 0.000000000000e+000
          1.960900304591e+000 2.773319745251e+000 0.000000000000e+000
          1.894565400391e+000 1.733316857565e+001 0.000000000000e+000
          0.000000000000e+000 1.538461538461e+001 0.000000000000e+000
          5.816229249735e-001 1.567919247147e+001 0.000000000000e+000
          0.000000000000e+000 1.589743589743e+001 0.000000000000e+000
          9.766405669483e+001 2.000000000000e+001 0.000000000000e+000
          1.010672711393e+002 1.500000000000e+001 0.000000000000e+000
          1.029329279907e+002 2.000000000000e+001 0.000000000000e+000
          9.588503785413e+001 1.500000000000e+001 0.000000000000e+000
          1.039231647117e+002 1.000000000000e+001 0.000000000000e+000
          9.860830811271e+001 1.000000000000e+001 0.000000000000e+000
          1.010672711397e+002 5.000000000000e+000 0.000000000000e+000
          9.766405669557e+001 0.000000000000e+000 0.000000000000e+000
          1.029329279915e+002 0.000000000000e+000 0.000000000000e+000
          9.588503785449e+001 5.000000000000e+000 0.000000000000e+000
          7.892434178002e+001 2.000000000000e+001 0.000000000000e+000
          8.173808356948e+001 1.500000000000e+001 0.000000000000e+000
          8.328058896910e+001 2.000000000000e+001 0.000000000000e+000
          7.679274808893e+001 1.514423393202e+001 0.000000000000e+000
          7.970503892166e+001 1.000000000000e+001 0.000000000000e+000
          8.409930620613e+001 1.000000000000e+001 0.000000000000e+000
          8.173808356980e+001 5.000000000000e+000 0.000000000000e+000
          7.892434178065e+001 0.000000000000e+000 0.000000000000e+000
          8.328058896976e+001 0.000000000000e+000 0.000000000000e+000
          7.679274808925e+001 4.855766067979e+000 0.000000000000e+000
          1.084583939765e+002 2.000000000000e+001 0.000000000000e+000
          1.122011528880e+002 1.500000000000e+001 0.000000000000e+000
          1.142529496098e+002 2.000000000000e+001 0.000000000000e+000
          1.065018792644e+002 1.500000000000e+001 0.000000000000e+000
          1.153419838410e+002 1.000000000000e+001 0.000000000000e+000
          1.094968549120e+002 1.000000000000e+001 0.000000000000e+000
          1.122011528884e+002 5.000000000000e+000 0.000000000000e+000
          1.084583939773e+002 0.000000000000e+000 0.000000000000e+000
          1.142529496106e+002 0.000000000000e+000 0.000000000000e+000
          1.065018792648e+002 5.000000000000e+000 0.000000000000e+000
          1.181779812237e+002 1.500000000000e+001 0.000000000000e+000
          1.203297004775e+002 2.000000000000e+001 0.000000000000e+000
          1.214717707847e+002 1.000000000000e+001 0.000000000000e+000
          1.181779812242e+002 5.000000000000e+000 0.000000000000e+000
          1.203297004784e+002 0.000000000000e+000 0.000000000000e+000
          7.477039199538e+001 2.000000000000e+001 0.000000000000e+000
          7.551483469771e+001 1.000000000000e+001 0.000000000000e+000
          7.296959467356e+001 1.385646386579e+001 0.000000000000e+000
          7.477039199599e+001 0.000000000000e+000 0.000000000000e+000
          7.296959467379e+001 6.143536134207e+000 0.000000000000e+000
          6.918477198508e+001 1.366665532880e+001 0.000000000000e+000
          6.746477463053e+001 1.000000000000e+001 0.000000000000e+000
          7.151921701478e+001 1.000000000000e+001 0.000000000000e+000
          6.918477198529e+001 6.333344671202e+000 0.000000000000e+000
          9.263986346551e+001 2.000000000000e+001 0.000000000000e+000
          9.094345943471e+001 1.500000000000e+001 0.000000000000e+000
          9.354026529380e+001 1.000000000000e+001 0.000000000000e+000
          9.263986346623e+001 0.000000000000e+000 0.000000000000e+000
          9.094345943506e+001 5.000000000000e+000 0.000000000000e+000
          1.244344522558e+002 1.503312574389e+001 0.000000000000e+000
          1.267023895482e+002 2.000000000000e+001 0.000000000000e+000
          1.285510028831e+002 1.020485663255e+001 0.000000000000e+000
          1.244344522563e+002 5.033125743893e+000 0.000000000000e+000
          1.267023895491e+002 0.000000000000e+000 0.000000000000e+000
          8.623136018348e+001 1.500000000000e+001 0.000000000000e+000
          8.784898578901e+001 2.000000000000e+001 0.000000000000e+000
          8.870757443665e+001 1.000000000000e+001 0.000000000000e+000
          8.623136018382e+001 5.000000000000e+000 0.000000000000e+000
          8.784898578969e+001 0.000000000000e+000 0.000000000000e+000
          4.872472752737e+000 0.000000000000e+000 0.000000000000e+000
          4.204479229380e+000 6.412840757122e-001 0.000000000000e+000
          4.157376851380e+000 0.000000000000e+000 0.000000000000e+000
          5.192892237051e+000 7.280355562789e-001 0.000000000000e+000
          1.306630304579e+000 6.212843344151e-001 0.000000000000e+000
          1.050228457081e+000 0.000000000000e+000 0.000000000000e+000
          1.614006202528e+000 0.000000000000e+000 0.000000000000e+000
          1.266763055794e+001 1.554696422866e+001 0.000000000000e+000
          1.263589100638e+001 1.657720348306e+001 0.000000000000e+000
          1.174268578662e+001 1.633018318031e+001 0.000000000000e+000
          6.588835695415e+000 7.505681085529e+000 0.000000000000e+000
          6.456871838389e+000 6.658671683861e+000 0.000000000000e+000
          7.208099140752e+000 7.038822846307e+000 0.000000000000e+000
          4.412623338166e+000 9.138856431549e+000 0.000000000000e+000
          4.024185797397e+000 8.708923235630e+000 0.000000000000e+000
          4.601447447338e+000 8.507292699647e+000 0.000000000000e+000
          5.325995059827e-001 6.308307298123e+000 0.000000000000e+000
          0.000000000000e+000 6.666666666655e+000 0.000000000000e+000
          0.000000000000e+000 6.153846153835e+000 0.000000000000e+000
          3.986461521768e+000 8.146114708182e+000 0.000000000000e+000
          2.411603373059e+000 6.510912162016e+000 0.000000000000e+000
          1.807525763324e+000 6.938080373464e+000 0.000000000000e+000
          1.686779352680e+000 6.178928843543e+000 0.000000000000e+000
          2.510760620997e+000 7.229076682239e+000 0.000000000000e+000
          3.166991983438e+000 6.906135870389e+000 0.000000000000e+000
          3.452788915829e+000 6.276851216781e+000 0.000000000000e+000
          3.340122000742e+000 5.656365440432e+000 0.000000000000e+000
          4.047936562877e+000 5.873561587395e+000 0.000000000000e+000
          1.802463974828e+000 1.292744708026e+001 0.000000000000e+000
          1.383967161336e+000 1.330299552906e+001 0.000000000000e+000
          1.329690820161e+000 1.266495373033e+001 0.000000000000e+000
          2.267922292389e+000 1.431116835808e+001 0.000000000000e+000
          2.854613987538e+000 1.466581611369e+001 0.000000000000e+000
          2.339869278674e+000 1.493776402241e+001 0.000000000000e+000
          4.690956878046e+000 3.115726773737e+000 0.000000000000e+000
          4.014773718330e+000 2.850429494150e+000 0.000000000000e+000
          4.643493383296e+000 2.293565471327e+000 0.000000000000e+000
          5.186083944243e+000 1.661927139510e+000 0.000000000000e+000
          5.452965511439e+000 2.679881546544e+000 0.000000000000e+000
          5.360460104304e+000 3.539902157655e+000 0.000000000000e+000
          6.197986304192e+000 3.115706366113e+000 0.000000000000e+000
          7.929356606585e-001 1.634705420870e+001 0.000000000000e+000
          1.222819867503e+000 1.599517159419e+001 0.000000000000e+000
          1.215723647926e+000 1.546209040954e+001 0.000000000000e+000
          1.770601276021e+000 1.521217632514e+001 0.000000000000e+000
          1.242830150061e+000 1.493919370237e+001 0.000000000000e+000
          1.166444124506e+000 4.610115997312e+000 0.000000000000e+000
          1.851620547934e+000 4.486892013458e+000 0.000000000000e+000
          1.494152702314e+000 5.145235789232e+000 0.000000000000e+000
          1.353088107040e+000 4.090803091641e+000 0.000000000000e+000
          3.802567455935e+000 5.084697985980e+000 0.000000000000e+000
          1.014840185783e+000 5.494768572296e+000 0.000000000000e+000
          8.831064584820e-001 5.109311190608e+000 0.000000000000e+000
          1.727903958959e+000 1.618384478933e+001 0.000000000000e+000
          1.343261525342e+000 1.651800241408e+001 0.000000000000e+000
          3.308120627291e+000 8.593311644828e+000 0.000000000000e+000
[...]
      <PointData Scalars="LIQUID_PRESSURE">
        <DataArray type="Float64" Name="LIQUID_PRESSURE" format="ascii">
          1.022195670047e+006 1.020247377845e+006 1.024736159243e+006 1.105343037525e+006 1.105329071067e+006 1.105337218799e+006 1.105327680159e+006 1.105466554128e+006 1.105474230111e+006 1.105430097974e+006 1.105326783158e+006 1.105463147552e+006 1.105277724407e+006 1.105380654882e+006 1.105291139284e+006 1.105325655519e+006 1.105377881846e+006 1.105288835110e+006 1.105452114939e+006 1.105466016570e+006 1.105450249085e+006 1.105063872224e+006 1.105033083370e+006 1.105056356945e+006 1.056843522536e+006 1.054951460958e+006 1.053914315987e+006 1.057832663074e+006 1.053363851103e+006 1.056318531758e+006 1.054951459490e+006 1.056843517789e+006 1.053914314293e+006 1.057832660978e+006 1.067265903215e+006 1.065700542881e+006 1.064842480111e+006 1.068451872174e+006 1.066831559726e+006 1.064387064322e+006 1.065700539723e+006 1.067265896411e+006 1.064842478466e+006 1.068451864843e+006 1.050842974788e+006 1.048762806611e+006 1.047622527763e+006 1.051930448566e+006 1.047017318425e+006 1.050265793280e+006 1.048762803507e+006 1.050842973524e+006 1.047622520810e+006 1.051930446945e+006 1.045441359458e+006 1.044245720314e+006 1.043611119030e+006 1.045441351894e+006 1.044245709578e+006 1.069577171856e+006 1.069162926152e+006 1.070579253291e+006 1.069577159294e+006 1.070579241121e+006 1.072685640656e+006 1.073642962800e+006 1.071386387853e+006 1.072685615271e+006 1.059637135813e+006 1.060580497378e+006 1.059136452554e+006 1.059637140899e+006 1.060580502447e+006 1.041964994789e+006 1.040704937582e+006 1.039677889535e+006 1.041964975942e+006 1.040704941687e+006 1.063201163451e+006 1.062301456635e+006 1.061823948882e+006 1.063201164525e+006 1.062301465026e+006 1.105236366041e+006 1.105407359955e+006 1.105394600311e+006 1.105146795247e+006 1.105257307061e+006 1.105153097371e+006 1.105393646796e+006 1.103522976363e+006 1.103521851287e+006 1.103769861020e+006 1.105053167725e+006 1.105086727880e+006 1.104820488923e+006 1.105344811909e+006 1.105383375548e+006 1.105291242074e+006 1.105002398010e+006 1.105014717484e+006 1.105009533695e+006 1.105379190959e+006 1.105401219199e+006 1.105404244867e+006 1.105377625260e+006 1.105379180395e+006 1.105292156053e+006 1.105311273712e+006 1.105283161396e+006 1.105370683638e+006 1.105422502748e+006 1.105280599638e+006 1.105255853517e+006 1.105448366874e+006 1.105331974615e+006 1.105434869068e+006 1.105240490232e+006 1.105358199829e+006 1.105266509648e+006 1.105137787620e+006 1.105104244565e+006 1.105103814376e+006 1.105127658028e+006 1.105055815884e+006 1.105180205489e+006 1.105184618009e+006 1.105411624378e+006 1.105201886109e+006 1.105168266524e+006 1.105433277046e+006 1.105310855064e+006 1.105247183568e+006 1.105341844381e+006 1.105106468988e+006 1.105068764265e+006 1.105387913315e+006 1.105232015282e+006 1.105307518690e+006 1.105358529450e+006 1.105295519406e+006 1.105078346605e+006 1.105073941045e+006 1.105233010224e+006 1.105081694015e+006 1.105098673400e+006 1.105279548021e+006 1.105318812366e+006 1.105085389187e+006 1.105306945509e+006 1.105364886488e+006 1.105043918349e+006 1.105054457220e+006 1.105219237470e+006 1.105389606475e+006 1.105450666115e+006 1.105371557049e+006 1.105241916147e+006 1.105159815467e+006 1.105105837423e+006 1.105100155584e+006 1.105306599448e+006 1.105271034163e+006 1.105082605725e+006 1.105060092022e+006 1.105394987866e+006 1.105058348158e+006 1.105049146977e+006 1.105055419678e+006 1.105416014671e+006 1.105393026515e+006 1.105406461458e+006 1.105303409032e+006 1.105143360583e+006 1.105374069330e+006 1.105317761772e+006 1.105352509116e+006 1.105038038095e+006 1.105035927251e+006 1.105125074028e+006 1.105431578742e+006 1.105427190151e+006 1.105290127099e+006 1.105403683701e+006 1.105066993277e+006 1.105054604042e+006 1.105304125931e+006 1.105312650817e+006 1.105411301872e+006 1.105436836674e+006 1.105115752983e+006 1.104971425189e+006 1.105452113591e+006 1.105433217144e+006 1.105086720682e+006 1.105439532050e+006 1.105310209000e+006 1.105396763954e+006 1.105353855617e+006 1.105355271147e+006 1.105401871459e+006 1.105476226853e+006 1.105405889289e+006 1.105207943246e+006 1.105105042795e+006 1.105206463850e+006 1.105367176380e+006 1.105320103354e+006 1.105277653596e+006 1.105270505476e+006 1.105116898637e+006 1.105355101121e+006 1.105457632001e+006 1.074813755566e+006 1.074813832401e+006 1.105352165913e+006 1.105453438932e+006 1.105064406907e+006 1.104695106004e+006 1.104748191696e+006 1.104606306729e+006 1.105389901523e+006 1.105364129709e+006 1.105117484189e+006 1.105315650260e+006 1.105088961345e+006 1.105433044086e+006 1.105410603748e+006 1.105115797102e+006 1.105437269051e+006 1.105145883834e+006 1.105174165159e+006 1.105358776844e+006 1.105307840709e+006 1.105029793616e+006 1.105357044642e+006 1.105434033959e+006 1.105438411170e+006 1.105318491896e+006 1.105476794341e+006 1.105365928127e+006 1.105019987136e+006 1.105015458927e+006 1.105033435939e+006 1.105042722607e+006 1.105034779986e+006 1.105032426837e+006 1.105006893858e+006 1.105012490247e+006 1.105024421450e+006 1.105123645986e+006 1.105036040819e+006 1.105029840609e+006 1.105084388961e+006 1.105090920282e+006 1.105093097222e+006 1.105036147011e+006 1.105047040189e+006 1.105043572302e+006 1.105051770593e+006 1.105069396365e+006 1.105077197916e+006 1.105085154089e+006 1.077800831362e+006 1.076266693068e+006 1.075888628941e+006 1.078543886389e+006 1.075806576904e+006 1.077725486825e+006 1.076266861666e+006 1.077800939094e+006 1.075888776611e+006 1.078543972759e+006 1.075806725535e+006 1.077725558952e+006 1.081363820886e+006 1.080333199617e+006 1.079624537646e+006 1.082039674326e+006 1.079552676318e+006 1.081295280805e+006 1.080333339343e+006 1.081363954733e+006 1.079624644302e+006 1.082039803647e+006 1.079552793574e+006 1.081295404816e+006 1.091483453918e+006 1.090741753033e+006 1.090233783389e+006 1.091964681498e+006 1.090181647664e+006 1.091433044554e+006 1.090742259723e+006 1.091484102671e+006 1.090234285600e+006 1.091965350897e+006 1.090181991981e+006 1.091433500395e+006 1.088924633877e+006 1.088111314146e+006 1.087552215863e+006 1.089457767601e+006 1.087495365749e+006 1.088870260291e+006 1.088111578306e+006 1.088925011356e+006 1.087552483563e+006 1.089458158246e+006 1.087495505899e+006 1.088870492840e+006 1.095181587455e+006 1.094526449960e+006 1.093850134247e+006 1.095794763700e+006 1.094527746481e+006 1.095183085407e+006 1.093851297068e+006 1.095796554416e+006 1.086113270725e+006 1.085219248533e+006 1.084604547387e+006 1.086699521911e+006 1.084542182292e+006 1.086053752122e+006 1.085219428799e+006 1.086113482682e+006 1.084604707297e+006 1.086699729139e+006 1.084542301736e+006 1.086053922330e+006 1.083022583333e+006 1.083667147713e+006 1.082957211485e+006 1.083022720665e+006 1.083667277299e+006 1.082957304384e+006 1.092680742646e+006 1.093325705709e+006 1.092629771975e+006 1.092681647719e+006 1.093326702140e+006 1.092630410768e+006 1.093808550382e+006 1.093809472559e+006 1.082323874166e+006 1.083374196219e+006 1.081732507828e+006 1.083938175758e+006 1.082323906631e+006 1.083938229483e+006 1.089681335217e+006 1.090508991702e+006 1.089214617246e+006 1.090954683757e+006 1.089681485532e+006 1.090954902846e+006 1.080631208230e+006 1.080011157543e+006 1.080631273259e+006 1.094814236812e+006 1.095136577126e+006 1.095135370110e+006 1.094813428116e+006 1.084939860745e+006 1.085477699695e+006 1.085477806717e+006 1.088346098421e+006 1.087856857534e+006 1.088346160398e+006 1.086945912802e+006 1.086432980078e+006 1.086945978693e+006 1.093330945324e+006 1.093330450096e+006 1.091741592641e+006 1.092169144739e+006 1.092169458997e+006 1.078856373338e+006 1.078206221366e+006 1.078856431486e+006 1.093062804024e+006 1.076789302740e+006 1.075739594236e+006 1.076789372751e+006 1.073883738031e+006 1.074219159102e+006 1.073883675907e+006 1.074219072104e+006 1.104723984619e+006 1.104640612377e+006 1.104793081093e+006 1.104624853150e+006 1.105342123487e+006 1.105380212001e+006 1.105463960538e+006 1.105352749769e+006 1.105463167337e+006 1.105234010930e+006 1.105163067661e+006 1.105384415780e+006 1.105011993760e+006 1.105113270124e+006 1.026432104180e+006 1.029016846990e+006 1.024736165349e+006 1.105075564521e+006 1.104806298869e+006 1.104917823049e+006 1.105056974565e+006 1.105398685306e+006 1.105404649625e+006 1.105125862372e+006 1.105412913797e+006 1.105374925799e+006 1.105466239254e+006 1.105416033915e+006 1.104792233629e+006 1.104787144128e+006 1.104661313967e+006 1.105463569060e+006 1.105340171386e+006 1.105032507230e+006 1.105031957491e+006 1.105047239128e+006 1.104705412378e+006 1.104806654280e+006 1.104778548226e+006 1.104941149668e+006 1.104727557661e+006 1.105071836175e+006 1.104692069205e+006 1.104420438621e+006 1.104604069397e+006 1.104656193725e+006 1.105018154852e+006 1.105400625060e+006 1.105393464488e+006 1.105337912898e+006 1.104698597710e+006 1.104571981059e+006 1.104368838073e+006 1.104255338027e+006 1.105368751235e+006 1.105358414238e+006 1.103915617078e+006 1.103812447706e+006 1.104098993925e+006 1.104944048341e+006 1.105081220032e+006 1.103549575700e+006 1.103965955752e+006 1.103719295514e+006 1.105360136941e+006 1.105091571676e+006 1.105112827495e+006 1.103165314560e+006 1.103230172417e+006 1.105395846034e+006 1.105199213101e+006 1.104806848222e+006 1.105064181872e+006 1.104682633631e+006 1.104723882971e+006 1.104653283989e+006 1.104641740257e+006 1.105105005133e+006 1.104187498762e+006 1.104272541660e+006 1.103832411823e+006 1.103586819939e+006 1.103495951784e+006 1.104431629328e+006 1.103458094076e+006 1.103678627602e+006 1.103763102222e+006 1.103315634608e+006 1.105393593335e+006 1.105417036053e+006 1.104166496735e+006 1.104341146209e+006 1.105111774773e+006 1.105335073691e+006 1.105210069021e+006 1.105289336272e+006 1.105134654242e+006 1.105104262674e+006 1.105387952984e+006 1.105471727919e+006 1.105114849588e+006 1.105094106310e+006 1.104644358383e+006 1.104499131396e+006 1.104361527049e+006 1.104682418740e+006 1.104552002116e+006 1.104364294591e+006 1.104671677382e+006 1.105127261096e+006 1.105128539009e+006 1.105103843254e+006 1.104742225684e+006 1.105212144918e+006 1.105035605038e+006 1.105177193607e+006 1.105099896856e+006 1.104169658855e+006 1.103981764932e+006 1.104121010068e+006 1.105383331076e+006 1.105385918383e+006 1.105094208505e+006 1.104569198286e+006 1.105277299293e+006 1.103999554016e+006 1.104115464830e+006 1.105103565872e+006 1.105021824494e+006 1.105305238297e+006 1.105164504447e+006 1.105320349423e+006 1.104982694267e+006 1.105251982141e+006 1.104701279769e+006 1.104608669236e+006 1.105462744725e+006 1.105338747419e+006 1.105325590889e+006 1.105416264230e+006 1.104835093438e+006 1.104782671757e+006 1.104827195982e+006 1.105034545942e+006 1.105162940599e+006 1.105394865276e+006 1.105436714102e+006 1.104232673095e+006 1.104357987608e+006 1.104436492909e+006 1.104178465817e+006 1.105114646265e+006 1.103977436961e+006 1.103588939376e+006 1.103720617335e+006 1.105083974663e+006 1.105382910752e+006 1.105463183746e+006 1.104681906037e+006 1.104214592414e+006 1.104163915526e+006 1.104087539651e+006 1.104359506452e+006 1.104360552665e+006 1.105470960388e+006 1.105449285177e+006 1.105357339895e+006 1.104122921236e+006 1.104014532363e+006 1.105006434049e+006 1.105119968843e+006 1.105122905548e+006 1.104157173523e+006 1.104337618606e+006 1.104243162908e+006 1.105454889110e+006 1.105142425439e+006 1.105076628064e+006 1.105409957851e+006 1.105386767909e+006 1.104205605356e+006 1.104522355051e+006 1.105115200116e+006 1.105151137529e+006 1.105036120311e+006 1.104601456751e+006 1.104381182973e+006 1.104482035152e+006 1.105358233655e+006 1.104820961175e+006 1.105306024321e+006 1.104176240436e+006 1.105079117832e+006 1.105429383504e+006 1.105340090578e+006 1.105431477922e+006 1.104690450732e+006 1.103991975249e+006 1.105338794793e+006 1.105321953583e+006 1.104600184456e+006 1.103761246156e+006 1.104061480721e+006 1.105312825480e+006 1.105020661719e+006 1.105038286633e+006 1.104236102365e+006 1.104162677434e+006 1.104083660302e+006 1.015540400729e+006 1.013598809765e+006 1.010604359440e+006 1.104673356055e+006 1.105029901556e+006 1.105426696376e+006 1.105382099833e+006 1.105321398969e+006 1.105288197396e+006 1.104678313908e+006 1.105345057351e+006 1.105257439439e+006 1.105148969308e+006 1.072199189016e+006 1.072199221022e+006 1.105020121159e+006 1.105029861678e+006 1.105348604339e+006 1.105163642986e+006 1.104417375431e+006 1.105103863018e+006 1.104551536885e+006 1.105089111267e+006 1.104946909627e+006 1.105333725380e+006 1.104140751113e+006 1.104180776675e+006 1.104775108274e+006 1.022057278067e+006 1.020247419882e+006 1.105355263569e+006 1.105081777521e+006 1.105120030048e+006 1.105084131157e+006 1.104704195241e+006 1.105011253321e+006 1.096326215755e+006 1.096184796369e+006 1.096327656943e+006 1.096186114342e+006 1.105298038657e+006 1.105058418798e+006 1.104697585985e+006 1.105110475753e+006 1.095845561245e+006 1.095362991897e+006 1.094635018868e+006 1.095362588411e+006 1.104018872794e+006 1.103770366010e+006 1.105281811053e+006 1.104123059453e+006 1.105376295514e+006 1.105321953829e+006 1.105405458654e+006 1.105350027651e+006 1.105118686712e+006 1.105083736589e+006 1.105464095938e+006 1.105194834123e+006 1.103590215938e+006 1.103977943044e+006 1.018407605034e+006 1.015540413787e+006 1.105057898185e+006 1.105470788282e+006 1.105378743607e+006 1.105389894390e+006 1.104649973799e+006 1.105054578993e+006 1.104675126242e+006 1.071781463192e+006 1.071781455268e+006 1.103397164519e+006 1.105067803688e+006 1.102932477159e+006 1.102710332779e+006 1.102500802411e+006 1.104059491360e+006 1.105363153072e+006 1.105378853064e+006 1.103611105968e+006 1.006425867249e+006 1.005428112413e+006 1.103420854584e+006 1.105028912541e+006 1.105035881529e+006 1.103753977684e+006 1.105062565084e+006 1.105074718327e+006 1.105082071783e+006 1.103859914607e+006 1.097531813452e+006 1.096861250546e+006 1.096688190975e+006 1.098130421149e+006 1.097931246728e+006 1.096860156656e+006 1.098123703006e+006 1.097913855733e+006 1.098546421742e+006 1.099099138179e+006 1.098762254320e+006 1.099107740125e+006 1.098769294647e+006 1.099452002655e+006 1.099883627146e+006 1.099618650057e+006 1.099876309570e+006 1.099606350655e+006 1.100216715755e+006 1.100607281856e+006 1.100426908020e+006 1.100602382455e+006 1.100419333551e+006 1.100862813657e+006 1.101274754701e+006 1.101059824150e+006 1.101268175348e+006 1.101053085637e+006 1.101573291840e+006 1.101886676296e+006 1.101701882894e+006 1.101874720504e+006 1.101691499468e+006 1.097227992365e+006 1.097341740128e+006 1.098149042683e+006 1.098402030427e+006 1.097340855370e+006 1.097226234664e+006 1.098142375133e+006 1.098391650642e+006 1.099093179615e+006 1.099341615043e+006 1.099098806943e+006 1.099338372688e+006 1.099932674927e+006 1.100170924452e+006 1.099932031746e+006 1.100165140497e+006 1.100694658480e+006 1.100857036652e+006 1.100692554842e+006 1.100851416072e+006 1.099696708767e+006 1.100261614475e+006 1.099376408931e+006 1.100562828694e+006 1.099197623387e+006 1.100156514740e+006 1.100264972559e+006 1.099698182488e+006 1.099378303776e+006 1.100566237406e+006 1.099195711547e+006 1.100157267553e+006 1.100985907617e+006 1.101264922615e+006 1.100897996001e+006 1.100992378728e+006 1.101271716221e+006 1.100900293033e+006 1.101669164598e+006 1.101864000721e+006 1.101588052449e+006 1.101682396133e+006 1.101882810820e+006 1.101591146464e+006 1.102145055293e+006 1.102402203454e+006 1.102007293258e+006 1.102175036638e+006 1.102438054626e+006 1.102068812093e+006 1.102597007183e+006 1.102784477136e+006 1.102642445963e+006 1.102809197360e+006 1.101356689322e+006 1.101552730429e+006 1.101354354091e+006 1.101543172079e+006 1.097846533354e+006 1.096361162180e+006 1.097065621986e+006 1.097842807074e+006 1.096359423141e+006 1.097062784090e+006 1.098727352142e+006 1.098253081403e+006 1.098721821169e+006 1.098249837151e+006 1.099586034605e+006 1.099583705881e+006 1.100460600322e+006 1.100461221168e+006 1.101118198694e+006 1.101118743210e+006 1.104237240170e+006 1.104501026472e+006 1.104243788456e+006 1.105049142917e+006 1.101749257743e+006 1.101751675992e+006 1.102972719897e+006 1.103009306963e+006 1.102135567635e+006 1.102511205698e+006 1.102272469202e+006 1.102480354842e+006 1.102233999741e+006 1.101918672079e+006 1.102082155302e+006 1.101910002818e+006 1.102055159717e+006 1.102197477620e+006 1.104110330175e+006 1.102274910423e+006 1.104226844439e+006 1.104497725183e+006 1.103300599459e+006 1.103444353047e+006 1.102488075569e+006 1.102794580600e+006 1.102616178069e+006 1.102609424660e+006 1.102673472925e+006 1.102832865454e+006 1.102830567033e+006 1.102862998659e+006 1.102784543444e+006 1.103090730586e+006 1.102978827565e+006 1.103103035567e+006 1.102851358230e+006 1.103069946241e+006 1.103365248426e+006 1.104974581103e+006 1.104171661053e+006 1.103354358217e+006 1.105113582100e+006 1.104996549529e+006 1.103302517247e+006 1.000000000000e+006 1.000000000000e+006 1.005428101459e+006 1.104873455807e+006 1.105086803158e+006 1.105114885682e+006 1.105099058815e+006 1.104975602301e+006 1.105348522062e+006 1.105022446559e+006 1.105123165849e+006 1.105035624610e+006 1.104822514564e+006 1.103685077785e+006 1.103602196469e+006 1.105348087733e+006 1.105183424377e+006 1.103550521864e+006 1.103398239832e+006 1.105043111672e+006 1.103524364184e+006 1.103522721132e+006 1.104284528248e+006 1.104045381587e+006 1.102548107401e+006 1.104947978245e+006 1.070517716406e+006 1.070517732306e+006 1.105376798138e+006 1.094245571750e+006 1.094245882038e+006 1.103062493368e+006 1.105158246024e+006 1.104990932505e+006 1.103017347574e+006 1.105125493228e+006 1.105091219999e+006 1.105337907778e+006 1.102752175840e+006 1.102806880878e+006 1.102759823264e+006 1.104733635751e+006 1.032044353946e+006 1.030217247334e+006 1.104568274062e+006 1.103901397422e+006 1.033099106214e+006 1.105007973992e+006 1.104998407474e+006 1.105004404769e+006 1.103232594886e+006 1.104866540847e+006 1.010604313476e+006 1.105416468562e+006 1.105403621201e+006 1.105111324712e+006 1.103557023777e+006 1.105330924035e+006 1.096468198114e+006 1.096465659519e+006 1.105386057113e+006 1.104997789858e+006 1.104139153838e+006 1.105372329759e+006 1.105322066039e+006 1.105030871294e+006 1.105352268392e+006 1.105361281519e+006 1.105109442250e+006 1.104611867909e+006 1.104657417473e+006 1.105155522417e+006 1.105004000249e+006 1.105227646871e+006 1.105034177486e+006 1.104059049334e+006 1.103890621610e+006 1.105348932554e+006 1.103572491651e+006 1.035392407034e+006 1.103396595246e+006 1.017891376029e+006 1.103051751723e+006 1.105102708515e+006 1.103511883599e+006 1.105329775279e+006 1.103411187633e+006 1.105036181738e+006 1.102436837847e+006 1.105268358011e+006 1.105060348607e+006 1.105019264552e+006 1.105034394236e+006 1.105058286310e+006 1.105059720446e+006 1.033099092726e+006 1.036992193500e+006 1.029016824921e+006 1.038946402684e+006 1.105031189284e+006 1.037124911059e+006 1.026519526667e+006 1.105083781600e+006 1.105048422252e+006 1.105052936367e+006 1.104960169225e+006 1.036992205078e+006 1.105097750728e+006 1.105177150741e+006 1.094794081030e+006 1.094792802301e+006 1.097650542591e+006 1.097646808212e+006 1.105044469553e+006 1.105031567744e+006 1.098779733937e+006 1.098779822405e+006 1.098517003347e+006 1.098516997421e+006 1.105004983125e+006 1.105009401072e+006 
        </DataArray>
        <DataArray type="Float64" Name="MEAN_PRESSURE" format="ascii">