<?xml version="1.0"?>
<VTKFile type="UnstructuredGrid" version="0.1" byte_order="LittleEndian">
  <UnstructuredGrid>
    <Piece NumberOfPoints="963" NumberOfCells="1758">
      <Points>
        <DataArray type="Float64" NumberOfComponents="3" format="ascii">
          1.600262034769e+002 1.257989505921e+001 0.000000000000e+000
          1.635346199106e+002 2.000000000000e+001 0.000000000000e+000
          1.554515002484e+002 2.000000000000e+001 0.000000000000e+000
          3.459306441575e+000 1.667621982453e+001 0.000000000000e+000
          3.062266634850e+000 1.705413688405e+001 0.000000000000e+000
          2.873380769063e+000 1.650527725632e+001 0.000000000000e+000
          1.514088444034e+000 1.865189448105e+001 0.000000000000e+000
          1.967902677551e+000 1.834103489750e+001 0.000000000000e+000
          2.034564522234e+000 1.890806711991e+001 0.000000000000e+000
          2.478275273162e+000 1.702762299110e+001 0.000000000000e+000
          2.952621433467e+000 1.774357373580e+001 0.000000000000e+000
          2.237893542067e+000 1.782457469610e+001 0.000000000000e+000
          3.313583922780e+000 3.274674552047e+000 0.000000000000e+000
          2.561432712787e+000 3.156040447793e+000 0.000000000000e+000
          3.047531989640e+000 2.714594415171e+000 0.000000000000e+000
          2.750804692284e+000 3.936058190693e+000 0.000000000000e+000
          2.599039179818e+000 2.451529939148e+000 0.000000000000e+000
          3.139686649742e+000 2.186924052088e+000 0.000000000000e+000
          1.919984553221e+000 3.358010194268e+000 0.000000000000e+000
          1.960900304591e+000 2.773319745251e+000 0.000000000000e+000
          1.894565400391e+000 1.733316857565e+001 0.000000000000e+000
          0.000000000000e+000 1.538461538461e+001 0.000000000000e+000
          5.816229249735e-001 1.567919247147e+001 0.000000000000e+000
          0.000000000000e+000 1.589743589743e+001 0.000000000000e+000
          9.766405669483e+001 2.000000000000e+001 0.000000000000e+000
          1.010672711393e+002 1.500000000000e+001 0.000000000000e+000
          1.029329279907e+002 2.000000000000e+001 0.000000000000e+000
          9.588503785413e+001 1.500000000000e+001 0.000000000000e+000
          1.039231647117e+002 1.000000000000e+001 0.000000000000e+000
          9.860830811271e+001 1.000000000000e+001 0.000000000000e+000
          1.010672711397e+002 5.000000000000e+000 0.000000000000e+000
          9.766405669557e+001 0.000000000000e+000 0.000000000000e+000
          1.029329279915e+002 0.000000000000e+000 0.000000000000e+000
          9.588503785449e+001 5.000000000000e+000 0.000000000000e+000
          7.892434178002e+001 2.000000000000e+001 0.000000000000e+000
          8.173808356948e+001 1.500000000000e+001 0.000000000000e+000
          8.328058896910e+001 2.000000000000e+001 0.000000000000e+000
          7.679274808893e+001 1.514423393202e+001 0.000000000000e+000
          7.970503892166e+001 1.000000000000e+001 0.000000000000e+000
          8.409930620613e+001 1.000000000000e+001 0.000000000000e+000
          8.173808356980e+001 5.000000000000e+000 0.000000000000e+000
          7.892434178065e+001 0.000000000000e+000 0.000000000000e+000
          8.328058896976e+001 0.000000000000e+000 0.000000000000e+000
          7.679274808925e+001 4.855766067979e+000 0.000000000000e+000
          1.084583939765e+002 2.000000000000e+001 0.000000000000e+000
          1.122011528880e+002 1.500000000000e+001 0.000000000000e+000
          1.142529496098e+002 2.000000000000e+001 0.000000000000e+000
          1.065018792644e+002 1.500000000000e+001 0.000000000000e+000
          1.153419838410e+002 1.000000000000e+001 0.000000000000e+000
          1.094968549120e+002 1.000000000000e+001 0.000000000000e+000
          1.122011528884e+002 5.000000000000e+000 0.000000000000e+000
          1.084583939773e+002 0.000000000000e+000 0.000000000000e+000
          1.142529496106e+002 0.000000000000e+000 0.000000000000e+000
          1.065018792648e+002 5.000000000000e+000 0.000000000000e+000
          1.181779812237e+002 1.500000000000e+001 0.000000000000e+000
          1.203297004775e+002 2.000000000000e+001 0.000000000000e+000
          1.214717707847e+002 1.000000000000e+001 0.000000000000e+000
          1.181779812242e+002 5.000000000000e+000 0.000000000000e+000
          1.203297004784e+002 0.000000000000e+000 0.000000000000e+000
          7.477039199538e+001 2.000000000000e+001 0.000000000000e+000
          7.551483469771e+001 1.000000000000e+001 0.000000000000e+000
          7.296959467356e+001 1.385646386579e+001 0.000000000000e+000
          7.477039199599e+001 0.000000000000e+000 0.000000000000e+000
          7.296959467379e+001 6.143536134207e+000 0.000000000000e+000
          6.918477198508e+001 1.366665532880e+001 0.000000000000e+000
          6.746477463053e+001 1.000000000000e+001 0.000000000000e+000
          7.151921701478e+001 1.000000000000e+001 0.000000000000e+000
          6.918477198529e+001 6.333344671202e+000 0.000000000000e+000
          9.263986346551e+001 2.000000000000e+001 0.000000000000e+000
          9.094345943471e+001 1.500000000000e+001 0.000000000000e+000
          9.354026529380e+001 1.000000000000e+001 0.000000000000e+000
          9.263986346623e+001 0.000000000000e+000 0.000000000000e+000
          9.094345943506e+001 5.000000000000e+000 0.000000000000e+000
          1.244344522558e+002 1.503312574389e+001 0.000000000000e+000
          1.267023895482e+002 2.000000000000e+001 0.000000000000e+000
          1.285510028831e+002 1.020485663255e+001 0.000000000000e+000
          1.244344522563e+002 5.033125743893e+000 0.000000000000e+000
          1.267023895491e+002 0.000000000000e+000 0.000000000000e+000
          8.623136018348e+001 1.500000000000e+001 0.000000000000e+000
          8.784898578901e+001 2.000000000000e+001 0.000000000000e+000
          8.870757443665e+001 1.000000000000e+001 0.000000000000e+000
          8.623136018382e+001 5.000000000000e+000 0.000000000000e+000
          8.784898578969e+001 0.000000000000e+000 0.000000000000e+000
          4.872472752737e+000 0.000000000000e+000 0.000000000000e+000
          4.204479229380e+000 6.412840757122e-001 0.000000000000e+000
          4.157376851380e+000 0.000000000000e+000 0.000000000000e+000
          5.192892237051e+000 7.280355562789e-001 0.000000000000e+000
          1.306630304579e+000 6.212843344151e-001 0.000000000000e+000
          1.050228457081e+000 0.000000000000e+000 0.000000000000e+000
          1.614006202528e+000 0.000000000000e+000 0.000000000000e+000
          1.266763055794e+001 1.554696422866e+001 0.000000000000e+000
          1.263589100638e+001 1.657720348306e+001 0.000000000000e+000
          1.174268578662e+001 1.633018318031e+001 0.000000000000e+000
          6.588835695415e+000 7.505681085529e+000 0.000000000000e+000
          6.456871838389e+000 6.658671683861e+000 0.000000000000e+000
          7.208099140752e+000 7.038822846307e+000 0.000000000000e+000
          4.412623338166e+000 9.138856431549e+000 0.000000000000e+000
          4.024185797397e+000 8.708923235630e+000 0.000000000000e+000
          4.601447447338e+000 8.507292699647e+000 0.000000000000e+000
          5.325995059827e-001 6.308307298123e+000 0.000000000000e+000
          0.000000000000e+000 6.666666666655e+000 0.000000000000e+000
          0.000000000000e+000 6.153846153835e+000 0.000000000000e+000
          3.986461521768e+000 8.146114708182e+000 0.000000000000e+000
          2.411603373059e+000 6.510912162016e+000 0.000000000000e+000
          1.807525763324e+000 6.938080373464e+000 0.000000000000e+000
          1.686779352680e+000 6.178928843543e+000 0.000000000000e+000
          2.510760620997e+000 7.229076682239e+000 0.000000000000e+000
          3.166991983438e+000 6.906135870389e+000 0.000000000000e+000
          3.452788915829e+000 6.276851216781e+000 0.000000000000e+000
          3.340122000742e+000 5.656365440432e+000 0.000000000000e+000
          4.047936562877e+000 5.873561587395e+000 0.000000000000e+000
          1.802463974828e+000 1.292744708026e+001 0.000000000000e+000
          1.383967161336e+000 1.330299552906e+001 0.000000000000e+000
          1.329690820161e+000 1.266495373033e+001 0.000000000000e+000
          2.267922292389e+000 1.431116835808e+001 0.000000000000e+000
          2.854613987538e+000 1.466581611369e+001 0.000000000000e+000
          2.339869278674e+000 1.493776402241e+001 0.000000000000e+000
          4.690956878046e+000 3.115726773737e+000 0.000000000000e+000
          4.014773718330e+000 2.850429494150e+000 0.000000000000e+000
          4.643493383296e+000 2.293565471327e+000 0.000000000000e+000
          5.186083944243e+000 1.661927139510e+000 0.000000000000e+000
          5.452965511439e+000 2.679881546544e+000 0.000000000000e+000
          5.360460104304e+000 3.539902157655e+000 0.000000000000e+000
          6.197986304192e+000 3.115706366113e+000 0.000000000000e+000
          7.929356606585e-001 1.634705420870e+001 0.000000000000e+000
          1.222819867503e+000 1.599517159419e+001 0.000000000000e+000
          1.215723647926e+000 1.546209040954e+001 0.000000000000e+000
          1.770601276021e+000 1.521217632514e+001 0.000000000000e+000
          1.242830150061e+000 1.493919370237e+001 0.000000000000e+000
          1.166444124506e+000 4.610115997312e+000 0.000000000000e+000
          1.851620547934e+000 4.486892013458e+000 0.000000000000e+000
          1.494152702314e+000 5.145235789232e+000 0.000000000000e+000
          1.353088107040e+000 4.090803091641e+000 0.000000000000e+000
          3.802567455935e+000 5.084697985980e+000 0.000000000000e+000
          1.014840185783e+000 5.494768572296e+000 0.000000000000e+000
          8.831064584820e-001 5.109311190608e+000 0.000000000000e+000
          1.727903958959e+000 1.618384478933e+001 0.000000000000e+000
          1.343261525342e+000 1.651800241408e+001 0.000000000000e+000
          3.308120627291e+000 8.593311644828e+000 0.000000000000e+000
[...]
      <PointData Scalars="LIQUID_PRESSURE">
        <DataArray type="Float64" Name="LIQUID_PRESSURE" format="ascii">
          1.017497158931e+006 1.016069090964e+006 1.019934280452e+006 1.087114579825e+006 1.087187977992e+006 1.087332940914e+006 1.087424517864e+006 1.087988066967e+006 1.088034730979e+006 1.087890384821e+006 1.087238153249e+006 1.088022114917e+006 1.087019473793e+006 1.087755592064e+006 1.087160819359e+006 1.087450140650e+006 1.087718973729e+006 1.087065036514e+006 1.087966910754e+006 1.088036877884e+006 1.087889989390e+006 1.087721502257e+006 1.087243214385e+006 1.087709738089e+006 1.056210964302e+006 1.054199272587e+006 1.053134473517e+006 1.056947082664e+006 1.052541608865e+006 1.055688910098e+006 1.054199680391e+006 1.056210882206e+006 1.053142547069e+006 1.056947657450e+006 1.066553226823e+006 1.064983929957e+006 1.064159476106e+006 1.067552119663e+006 1.066205352346e+006 1.063577913352e+006 1.064983901954e+006 1.066553893850e+006 1.064159369470e+006 1.067553693188e+006 1.049584941633e+006 1.047340813162e+006 1.046005168558e+006 1.050686198138e+006 1.045091100674e+006 1.049071818224e+006 1.047359804403e+006 1.049568777923e+006 1.046062844724e+006 1.050689407316e+006 1.043869965053e+006 1.041521387056e+006 1.040856947799e+006 1.043741145052e+006 1.041416678047e+006 1.068559251658e+006 1.068063461206e+006 1.069324355922e+006 1.068561288713e+006 1.069324673515e+006 1.070841446966e+006 1.072088583307e+006 1.070276743945e+006 1.070832362249e+006 1.059433211009e+006 1.060002583293e+006 1.058775196088e+006 1.059433544782e+006 1.060002578464e+006 1.039100422975e+006 1.038318579056e+006 1.037084811790e+006 1.039506223182e+006 1.037886673631e+006 1.062886572386e+006 1.061463241494e+006 1.061295679367e+006 1.062886454684e+006 1.061463042675e+006 1.087435631320e+006 1.087840127908e+006 1.087744127543e+006 1.087071664490e+006 1.087169197783e+006 1.086996772336e+006 1.087624054014e+006 1.086933055905e+006 1.086781067829e+006 1.086888286538e+006 1.087744422356e+006 1.087759540119e+006 1.087148514529e+006 1.087778828716e+006 1.087656312890e+006 1.087622279206e+006 1.087223742110e+006 1.087634710569e+006 1.087605088626e+006 1.087626636722e+006 1.087864733937e+006 1.087815668658e+006 1.087714241904e+006 1.087709156501e+006 1.087046513411e+006 1.087135136690e+006 1.087034126852e+006 1.087722858293e+006 1.087783138296e+006 1.087229638445e+006 1.087174315596e+006 1.087996490423e+006 1.087313307728e+006 1.087933454408e+006 1.087520409725e+006 1.087631420214e+006 1.087584287567e+006 1.087056715140e+006 1.086942282488e+006 1.086919452919e+006 1.087536705259e+006 1.087071680369e+006 1.087011027696e+006 1.087021943653e+006 1.087747119398e+006 1.087049317229e+006 1.087005751117e+006 1.087849171905e+006 1.087387768593e+006 1.087156734124e+006 1.087408003665e+006 1.086976559146e+006 1.086983588304e+006 1.087643715442e+006 1.087113557965e+006 1.087057893793e+006 1.087551951806e+006 1.087054034919e+006 1.087048464116e+006 1.087064435611e+006 1.087105103518e+006 1.087084018928e+006 1.086986265177e+006 1.087245655237e+006 1.087193418361e+006 1.087061628845e+006 1.087295548762e+006 1.087717337115e+006 1.087526155097e+006 1.087714337393e+006 1.087077501188e+006 1.087638151677e+006 1.088054259387e+006 1.087657677221e+006 1.087428079338e+006 1.087115539299e+006 1.087022539641e+006 1.087360465917e+006 1.087346592626e+006 1.087207335175e+006 1.086993308401e+006 1.086977014547e+006 1.087682909779e+006 1.087696413090e+006 1.087519000215e+006 1.087695443205e+006 1.087955472298e+006 1.087454372831e+006 1.087846474403e+006 1.087351331183e+006 1.086992999686e+006 1.087573077030e+006 1.087114202880e+006 1.087465973064e+006 1.087472200895e+006 1.087654733735e+006 1.086943706570e+006 1.087851860820e+006 1.087792779644e+006 1.087210678812e+006 1.087889635925e+006 1.087039118366e+006 1.087144804101e+006 1.087069221727e+006 1.087146380309e+006 1.087735673335e+006 1.087987737516e+006 1.087383785053e+006 1.087542173719e+006 1.087992165412e+006 1.087978231340e+006 1.086944345674e+006 1.087945571240e+006 1.087347493563e+006 1.087772252269e+006 1.087163190812e+006 1.087149127789e+006 1.087746814379e+006 1.088018485940e+006 1.087693017378e+006 1.087058685317e+006 1.086947065856e+006 1.087078193341e+006 1.087547499955e+006 1.087061147801e+006 1.087083322016e+006 1.087215710627e+006 1.086957824080e+006 1.087515598004e+006 1.088009221430e+006 1.073288957088e+006 1.073289595182e+006 1.087635765024e+006 1.087977539135e+006 1.086901236526e+006 1.087281024330e+006 1.086919005478e+006 1.087568269296e+006 1.087378868136e+006 1.087839745562e+006 1.087002290360e+006 1.087435901619e+006 1.086988247615e+006 1.087830353088e+006 1.087805221498e+006 1.087027162198e+006 1.087987712490e+006 1.087017012138e+006 1.087072449731e+006 1.087492921502e+006 1.087170005709e+006 1.087172309918e+006 1.087320380426e+006 1.087823788435e+006 1.087824855486e+006 1.086998495688e+006 1.088077414629e+006 1.087568505699e+006 1.087209466199e+006 1.087245146045e+006 1.087665916419e+006 1.087669183802e+006 1.087663650508e+006 1.087659078997e+006 1.087320251001e+006 1.087532067313e+006 1.087352861573e+006 1.086964140458e+006 1.087161759919e+006 1.087573957146e+006 1.087566333600e+006 1.087690280177e+006 1.087704548310e+006 1.087428499728e+006 1.087694793875e+006 1.087365750705e+006 1.087665793039e+006 1.087508837782e+006 1.087718893395e+006 1.087705194740e+006 1.074935142680e+006 1.073955226161e+006 1.074019327202e+006 1.075799633099e+006 1.073848448410e+006 1.074850196378e+006 1.073858854482e+006 1.074981389234e+006 1.074045035359e+006 1.075824298127e+006 1.073878670426e+006 1.074868820438e+006 1.077539030302e+006 1.076580504170e+006 1.076348175138e+006 1.078459411849e+006 1.076467317317e+006 1.077288361332e+006 1.076577888377e+006 1.077545065287e+006 1.076330044085e+006 1.078459780050e+006 1.076460352558e+006 1.077290585183e+006 1.083022810038e+006 1.082774176154e+006 1.082439911818e+006 1.083309374065e+006 1.082393741086e+006 1.082998109456e+006 1.082774275322e+006 1.083022942958e+006 1.082439951089e+006 1.083309524210e+006 1.082393802483e+006 1.082998220086e+006 1.081706087392e+006 1.081722610446e+006 1.081102741458e+006 1.082164870289e+006 1.080934185050e+006 1.081752854430e+006 1.081722659281e+006 1.081706248115e+006 1.081102741602e+006 1.082164888686e+006 1.080934227796e+006 1.081752881726e+006 1.084543049945e+006 1.084217783928e+006 1.083819052943e+006 1.084506423019e+006 1.084217585804e+006 1.084543051488e+006 1.083819066920e+006 1.084505621687e+006 1.080642696159e+006 1.079677612910e+006 1.079889636737e+006 1.080520054655e+006 1.079775480262e+006 1.080554423856e+006 1.079677457301e+006 1.080642512612e+006 1.079889547999e+006 1.080520014644e+006 1.079775391459e+006 1.080554253988e+006 1.078364247707e+006 1.078607442388e+006 1.078481476642e+006 1.078362522437e+006 1.078606786541e+006 1.078480516664e+006 1.083600127103e+006 1.083961479279e+006 1.083486082303e+006 1.083600305108e+006 1.083961619982e+006 1.083486156779e+006 1.083735251004e+006 1.083734972125e+006 1.078307938374e+006 1.078840871347e+006 1.077537135819e+006 1.079001368200e+006 1.078307208587e+006 1.079001182382e+006 1.082320048723e+006 1.082526563850e+006 1.081962988617e+006 1.082856763338e+006 1.082320062536e+006 1.082856807392e+006 1.076987228791e+006 1.076853019433e+006 1.076989121684e+006 1.084359011302e+006 1.084601081522e+006 1.084602532218e+006 1.084360384215e+006 1.079852068125e+006 1.079839900664e+006 1.079839918559e+006 1.081620691239e+006 1.081217136845e+006 1.081620734550e+006 1.080957361861e+006 1.080627342799e+006 1.080957318811e+006 1.083825570149e+006 1.083825580530e+006 1.083107923551e+006 1.083473960907e+006 1.083474033010e+006 1.076054581887e+006 1.075076110923e+006 1.076052017240e+006 1.083685442714e+006 1.074097667909e+006 1.073495288769e+006 1.074097454464e+006 1.072272141335e+006 1.071965788717e+006 1.072220550710e+006 1.071934355707e+006 1.086969410031e+006 1.087049104767e+006 1.087221389463e+006 1.087325001045e+006 1.087328498288e+006 1.087587722368e+006 1.088001677800e+006 1.087381417855e+006 1.087999750843e+006 1.087483328873e+006 1.087207919471e+006 1.087630627788e+006 1.087314238104e+006 1.087132375137e+006 1.022458282452e+006 1.024404066159e+006 1.019891591829e+006 1.087661131549e+006 1.087112371775e+006 1.087475253003e+006 1.087658817989e+006 1.087506662605e+006 1.087754509904e+006 1.086957294510e+006 1.087592543043e+006 1.087562087494e+006 1.087984102953e+006 1.087721484674e+006 1.087023222887e+006 1.087078393790e+006 1.087245926118e+006 1.087964585863e+006 1.087192720904e+006 1.087665335287e+006 1.087291062760e+006 1.087645017221e+006 1.087063189347e+006 1.086980297699e+006 1.087010244441e+006 1.087438310147e+006 1.087059393467e+006 1.087650268625e+006 1.087343191277e+006 1.087262625659e+006 1.087532418472e+006 1.087378914495e+006 1.087134904708e+006 1.087683775493e+006 1.087445644299e+006 1.087101048331e+006 1.087363482429e+006 1.087514613230e+006 1.087042355298e+006 1.086746183494e+006 1.087192396288e+006 1.087353620942e+006 1.086981370878e+006 1.086890779742e+006 1.087215414057e+006 1.087409668774e+006 1.087649834433e+006 1.087020395003e+006 1.087213920461e+006 1.086713583196e+006 1.087812093624e+006 1.086992047068e+006 1.087411206560e+006 1.086703883770e+006 1.086826577332e+006 1.087653058621e+006 1.087057407250e+006 1.086981617196e+006 1.087628272152e+006 1.086877698240e+006 1.086888745298e+006 1.087367244466e+006 1.087405116173e+006 1.087065510408e+006 1.086897473130e+006 1.086876926633e+006 1.086966528682e+006 1.086634055490e+006 1.087008495490e+006 1.087272577397e+006 1.087083643927e+006 1.086713744222e+006 1.086835623817e+006 1.087120692997e+006 1.087865103989e+006 1.087653537506e+006 1.086892455705e+006 1.086956604001e+006 1.086984073877e+006 1.087042328251e+006 1.087449201835e+006 1.087731379807e+006 1.086942910277e+006 1.086962306330e+006 1.087589472623e+006 1.088010845417e+006 1.087419038574e+006 1.086991938245e+006 1.087438323870e+006 1.087461432074e+006 1.087132145408e+006 1.086987234415e+006 1.087500748963e+006 1.087025727140e+006 1.087261639773e+006 1.087398615471e+006 1.087389519686e+006 1.086928405652e+006 1.086989885067e+006 1.087425518747e+006 1.087663422511e+006 1.087277110547e+006 1.086939898220e+006 1.086945173328e+006 1.087137801087e+006 1.087206427904e+006 1.087877538894e+006 1.087296304865e+006 1.086927472412e+006 1.087382343916e+006 1.087660631099e+006 1.087294507440e+006 1.087153684504e+006 1.086949692924e+006 1.087275713999e+006 1.087740695825e+006 1.087225891334e+006 1.087766207193e+006 1.087626802625e+006 1.087517958275e+006 1.086907582878e+006 1.087545152722e+006 1.087961988210e+006 1.087044839373e+006 1.087119311503e+006 1.087707979154e+006 1.087173844427e+006 1.087044974381e+006 1.087080647533e+006 1.087653236559e+006 1.087257862616e+006 1.087703558490e+006 1.087894431921e+006 1.086920799715e+006 1.087033606973e+006 1.087305407642e+006 1.086957995558e+006 1.087257966438e+006 1.087236387024e+006 1.086651117437e+006 1.086756114996e+006 1.087123343890e+006 1.087857695982e+006 1.088038325928e+006 1.086820210353e+006 1.086784913777e+006 1.086859536147e+006 1.087268403995e+006 1.087081289801e+006 1.087109835165e+006 1.088008254070e+006 1.087862948672e+006 1.087419441050e+006 1.087149485012e+006 1.087307978252e+006 1.087640795195e+006 1.087500279961e+006 1.087445396450e+006 1.086898811189e+006 1.086999268693e+006 1.086777799863e+006 1.088025759398e+006 1.086946882814e+006 1.087518191368e+006 1.087589474904e+006 1.087325315353e+006 1.086803875519e+006 1.087362154382e+006 1.086975740358e+006 1.086967262409e+006 1.087161610770e+006 1.087496077773e+006 1.087062675849e+006 1.087351084349e+006 1.087461993598e+006 1.087111709670e+006 1.087725344169e+006 1.086894866623e+006 1.086834803459e+006 1.087852180846e+006 1.087299402899e+006 1.087939241991e+006 1.086994938194e+006 1.087291619878e+006 1.087355501136e+006 1.087017850549e+006 1.087443029966e+006 1.086885964710e+006 1.087369544202e+006 1.087067682355e+006 1.087239355295e+006 1.087425227213e+006 1.086753754098e+006 1.086780357716e+006 1.087246811964e+006 1.012302625731e+006 1.010762655000e+006 1.008393654714e+006 1.087124745432e+006 1.087287628080e+006 1.087859787363e+006 1.087657072021e+006 1.087170906341e+006 1.087695388080e+006 1.087135103341e+006 1.087102677898e+006 1.087599342930e+006 1.087175857855e+006 1.071084922279e+006 1.071104252378e+006 1.087288393065e+006 1.087658598529e+006 1.087576007105e+006 1.087199019659e+006 1.087298268371e+006 1.086989326036e+006 1.087380660633e+006 1.087076030332e+006 1.087503638625e+006 1.087424083952e+006 1.087142585323e+006 1.087017222570e+006 1.087052875103e+006 1.017450108422e+006 1.016048211154e+006 1.087658609811e+006 1.086967896899e+006 1.087033281861e+006 1.087449928690e+006 1.086976933520e+006 1.087193625746e+006 1.084830366754e+006 1.084802693296e+006 1.084824874329e+006 1.084798541525e+006 1.087109009636e+006 1.087112289265e+006 1.086887764987e+006 1.086964944489e+006 1.084409115726e+006 1.084515854439e+006 1.084391757723e+006 1.084513828872e+006 1.087271788067e+006 1.086865673819e+006 1.087357576918e+006 1.087118655616e+006 1.087375551371e+006 1.087065696979e+006 1.087782320749e+006 1.087802176755e+006 1.086994116258e+006 1.086904418967e+006 1.088000984295e+006 1.087037985423e+006 1.086732342377e+006 1.087205732809e+006 1.014565099909e+006 1.012301907148e+006 1.087465955835e+006 1.088016642079e+006 1.087649394380e+006 1.087746360126e+006 1.087451869167e+006 1.087414891589e+006 1.086954079902e+006 1.070114552142e+006 1.070100630460e+006 1.087076611575e+006 1.087516308744e+006 1.086452065280e+006 1.086915616974e+006 1.086807269479e+006 1.087275112063e+006 1.087802496067e+006 1.087579431782e+006 1.086573695942e+006 1.005085996775e+006 1.004296389446e+006 1.087073779187e+006 1.087670503776e+006 1.087647817795e+006 1.086808128303e+006 1.087601349412e+006 1.087487175918e+006 1.087686613896e+006 1.087023354728e+006 1.084935031317e+006 1.084892886592e+006 1.084783357567e+006 1.085487087284e+006 1.085286113894e+006 1.084875000863e+006 1.085511208548e+006 1.085236541670e+006 1.085414107504e+006 1.085540351465e+006 1.085313910509e+006 1.085533337121e+006 1.085478015893e+006 1.085705382950e+006 1.085660531945e+006 1.085771458290e+006 1.085675658489e+006 1.085809175511e+006 1.085833727673e+006 1.086059087297e+006 1.086045750059e+006 1.086054916567e+006 1.086043164502e+006 1.086085813179e+006 1.086138124383e+006 1.085972366881e+006 1.086139604532e+006 1.085972385734e+006 1.086548507258e+006 1.086405065354e+006 1.086446905729e+006 1.086407551231e+006 1.086447244276e+006 1.085005819567e+006 1.084959930224e+006 1.085232754118e+006 1.085289918973e+006 1.084958888863e+006 1.085005284049e+006 1.085221245835e+006 1.085265516456e+006 1.085617844354e+006 1.085811130614e+006 1.085629894313e+006 1.085830341130e+006 1.085686271639e+006 1.085809238150e+006 1.085683141588e+006 1.085810791752e+006 1.086098617735e+006 1.086155554753e+006 1.086099587703e+006 1.086149712368e+006 1.085798566651e+006 1.085763377462e+006 1.085821945496e+006 1.086161874899e+006 1.085628161091e+006 1.085944475622e+006 1.085762747271e+006 1.085797187645e+006 1.085816859603e+006 1.086159569484e+006 1.085628658513e+006 1.085944975978e+006 1.085988070332e+006 1.086103021314e+006 1.086122383726e+006 1.085981899443e+006 1.086091252839e+006 1.086119574623e+006 1.086543448134e+006 1.086442768173e+006 1.086438167670e+006 1.086532520507e+006 1.086437632779e+006 1.086435295166e+006 1.086203383195e+006 1.086537543728e+006 1.086176685561e+006 1.086213639685e+006 1.086599890799e+006 1.086215935169e+006 1.086796217812e+006 1.086423269788e+006 1.086788456173e+006 1.086463223570e+006 1.086106622833e+006 1.086489226369e+006 1.086112128653e+006 1.086475036028e+006 1.085054695621e+006 1.084894238582e+006 1.085007346347e+006 1.085054861611e+006 1.084894579043e+006 1.085007848014e+006 1.085296243456e+006 1.085409679867e+006 1.085293208809e+006 1.085410781203e+006 1.085872172948e+006 1.085876888994e+006 1.086044776002e+006 1.086040112086e+006 1.085914953902e+006 1.085894786766e+006 1.086854652632e+006 1.087309114866e+006 1.086862429892e+006 1.087281456375e+006 1.086481552689e+006 1.086462881750e+006 1.086565660860e+006 1.086579615161e+006 1.086359868466e+006 1.086738295964e+006 1.086372628881e+006 1.086715838342e+006 1.086350447702e+006 1.086442449713e+006 1.086240997722e+006 1.086427971112e+006 1.086222193474e+006 1.086299810935e+006 1.087324610341e+006 1.086393417968e+006 1.086785716910e+006 1.087353108950e+006 1.087095891493e+006 1.087093612478e+006 1.086720119835e+006 1.086747704126e+006 1.086759422007e+006 1.086731425566e+006 1.086725634018e+006 1.086517992318e+006 1.086702324671e+006 1.086386616877e+006 1.086677849887e+006 1.086596956379e+006 1.086507387892e+006 1.086617484341e+006 1.086590535859e+006 1.086523189945e+006 1.087133051630e+006 1.087575430049e+006 1.086958880573e+006 1.087065487580e+006 1.087240159949e+006 1.087248403995e+006 1.087045796900e+006 1.000000000000e+006 1.000000000000e+006 1.004296299317e+006 1.087390914023e+006 1.087730415398e+006 1.087234402884e+006 1.087603679430e+006 1.087532756584e+006 1.087167926203e+006 1.087647342037e+006 1.087312688681e+006 1.087627624024e+006 1.087057362611e+006 1.086693111510e+006 1.086670621249e+006 1.087167550891e+006 1.087215584253e+006 1.086785003405e+006 1.087086141042e+006 1.087644854581e+006 1.086923911158e+006 1.086697195923e+006 1.086893509729e+006 1.087254483838e+006 1.086815658588e+006 1.087447811264e+006 1.069400035059e+006 1.069402135398e+006 1.087848928220e+006 1.084115790946e+006 1.084116414565e+006 1.086686966006e+006 1.087196051232e+006 1.087561892155e+006 1.086560533785e+006 1.087126322599e+006 1.086935050310e+006 1.087436665474e+006 1.086724091297e+006 1.086526254303e+006 1.086709633454e+006 1.087002790149e+006 1.026216200759e+006 1.025271141200e+006 1.087525868664e+006 1.087127383068e+006 1.027029752136e+006 1.087635742804e+006 1.087232236139e+006 1.087643532229e+006 1.086854421838e+006 1.087226843817e+006 1.008393512828e+006 1.087812316324e+006 1.087733024324e+006 1.087026440234e+006 1.086739250104e+006 1.087751862248e+006 1.084829612686e+006 1.084828074745e+006 1.087819096848e+006 1.087379362223e+006 1.087137418488e+006 1.087387853132e+006 1.087687882037e+006 1.087502072868e+006 1.087139485461e+006 1.087370609977e+006 1.087403528719e+006 1.087299433434e+006 1.087079828429e+006 1.087104568787e+006 1.087657628880e+006 1.087464402341e+006 1.087678698354e+006 1.087413052429e+006 1.087135681493e+006 1.087101220388e+006 1.086654512033e+006 1.030576431746e+006 1.087047574183e+006 1.014157596746e+006 1.086622775043e+006 1.086941006024e+006 1.086888427207e+006 1.087196258523e+006 1.086997162543e+006 1.087675371902e+006 1.086738555282e+006 1.087544039216e+006 1.087671425695e+006 1.087641954323e+006 1.087684349344e+006 1.087683521838e+006 1.087606564085e+006 1.029254240602e+006 1.033565965930e+006 1.023617363790e+006 1.036068948917e+006 1.087498372894e+006 1.033832973885e+006 1.022144078465e+006 1.087029217859e+006 1.087474560772e+006 1.087612467773e+006 1.087606414003e+006 1.033911235999e+006 1.087243554593e+006 1.087236222385e+006 1.084250598708e+006 1.084250781394e+006 1.085237122359e+006 1.085235251622e+006 1.087674351513e+006 1.087483779978e+006 1.085272081146e+006 1.085270273210e+006 1.085133914345e+006 1.085152810556e+006 1.087469993399e+006 1.087584208381e+006 
        </DataArray>
        <DataArray type="Float64" Name="MEAN_PRESSURE" format="ascii">