<?xml version="1.0"?>
<VTKFile type="UnstructuredGrid" version="0.1" byte_order="LittleEndian">
  <UnstructuredGrid>
    <Piece NumberOfPoints="963" NumberOfCells="1758">
      <Points>
        <DataArray type="Float64" NumberOfComponents="3" format="ascii">
          1.600262034769e+002 1.257989505921e+001 0.000000000000e+000
          1.635346199106e+002 2.000000000000e+001 0.000000000000e+000
          1.554515002484e+002 2.000000000000e+001 0.000000000000e+000
          3.459306441575e+000 1.667621982453e+001 0.000000000000e+000
          3.062266634850e+000 1.705413688405e+001 0.000000000000e+000
          2.873380769063e+000 1.650527725632e+001 0.000000000000e+000
          1.514088444034e+000 1.865189448105e+001 0.000000000000e+000
          1.967902677551e+000 1.834103489750e+001 0.000000000000e+000
          2.034564522234e+000 1.890806711991e+001 0.000000000000e+000
          2.478275273162e+000 1.702762299110e+001 0.000000000000e+000
          2.952621433467e+000 1.774357373580e+001 0.000000000000e+000
          2.237893542067e+000 1.782457469610e+001 0.000000000000e+000
          3.313583922780e+000 3.274674552047e+000 0.000000000000e+000
          2.561432712787e+000 3.156040447793e+000 0.000000000000e+000
          3.047531989640e+000 2.714594415171e+000 0.000000000000e+000
          2.750804692284e+000 3.936058190693e+000 0.000000000000e+000
          2.599039179818e+000 2.451529939148e+000 0.000000000000e+000
          3.139686649742e+000 2.186924052088e+000 0.000000000000e+000
          1.919984553221e+000 3.358010194268e+000 0.000000000000e+000
          1.960900304591e+000 2.773319745251e+000 0.000000000000e+000
          1.894565400391e+000 1.733316857565e+001 0.000000000000e+000
          0.000000000000e+000 1.538461538461e+001 0.000000000000e+000
          5.816229249735e-001 1.567919247147e+001 0.000000000000e+000
          0.000000000000e+000 1.589743589743e+001 0.000000000000e+000
          9.766405669483e+001 2.000000000000e+001 0.000000000000e+000
          1.010672711393e+002 1.500000000000e+001 0.000000000000e+000
          1.029329279907e+002 2.000000000000e+001 0.000000000000e+000
          9.588503785413e+001 1.500000000000e+001 0.000000000000e+000
          1.039231647117e+002 1.000000000000e+001 0.000000000000e+000
          9.860830811271e+001 1.000000000000e+001 0.000000000000e+000
          1.010672711397e+002 5.000000000000e+000 0.000000000000e+000
          9.766405669557e+001 0.000000000000e+000 0.000000000000e+000
          1.029329279915e+002 0.000000000000e+000 0.000000000000e+000
          9.588503785449e+001 5.000000000000e+000 0.000000000000e+000
          7.892434178002e+001 2.000000000000e+001 0.000000000000e+000
          8.173808356948e+001 1.500000000000e+001 0.000000000000e+000
          8.328058896910e+001 2.000000000000e+001 0.000000000000e+000
          7.679274808893e+001 1.514423393202e+001 0.000000000000e+000
          7.970503892166e+001 1.000000000000e+001 0.000000000000e+000
          8.409930620613e+001 1.000000000000e+001 0.000000000000e+000
          8.173808356980e+001 5.000000000000e+000 0.000000000000e+000
          7.892434178065e+001 0.000000000000e+000 0.000000000000e+000
          8.328058896976e+001 0.000000000000e+000 0.000000000000e+000
          7.679274808925e+001 4.855766067979e+000 0.000000000000e+000
          1.084583939765e+002 2.000000000000e+001 0.000000000000e+000
          1.122011528880e+002 1.500000000000e+001 0.000000000000e+000
          1.142529496098e+002 2.000000000000e+001 0.000000000000e+000
          1.065018792644e+002 1.500000000000e+001 0.000000000000e+000
          1.153419838410e+002 1.000000000000e+001 0.000000000000e+000
          1.094968549120e+002 1.000000000000e+001 0.000000000000e+000
          1.122011528884e+002 5.000000000000e+000 0.000000000000e+000
          1.084583939773e+002 0.000000000000e+000 0.000000000000e+000
          1.142529496106e+002 0.000000000000e+000 0.000000000000e+000
          1.065018792648e+002 5.000000000000e+000 0.000000000000e+000
          1.181779812237e+002 1.500000000000e+001 0.000000000000e+000
          1.203297004775e+002 2.000000000000e+001 0.000000000000e+000
          1.214717707847e+002 1.000000000000e+001 0.000000000000e+000
          1.181779812242e+002 5.000000000000e+000 0.000000000000e+000
          1.203297004784e+002 0.000000000000e+000 0.000000000000e+000
          7.477039199538e+001 2.000000000000e+001 0.000000000000e+000
          7.551483469771e+001 1.000000000000e+001 0.000000000000e+000
          7.296959467356e+001 1.385646386579e+001 0.000000000000e+000
          7.477039199599e+001 0.000000000000e+000 0.000000000000e+000
          7.296959467379e+001 6.143536134207e+000 0.000000000000e+000
          6.918477198508e+001 1.366665532880e+001 0.000000000000e+000
          6.746477463053e+001 1.000000000000e+001 0.000000000000e+000
          7.151921701478e+001 1.000000000000e+001 0.000000000000e+000
          6.918477198529e+001 6.333344671202e+000 0.000000000000e+000
          9.263986346551e+001 2.000000000000e+001 0.000000000000e+000
          9.094345943471e+001 1.500000000000e+001 0.000000000000e+000
          9.354026529380e+001 1.000000000000e+001 0.000000000000e+000
          9.263986346623e+001 0.000000000000e+000 0.000000000000e+000
          9.094345943506e+001 5.000000000000e+000 0.000000000000e+000
          1.244344522558e+002 1.503312574389e+001 0.000000000000e+000
          1.267023895482e+002 2.000000000000e+001 0.000000000000e+000
          1.285510028831e+002 1.020485663255e+001 0.000000000000e+000
          1.244344522563e+002 5.033125743893e+000 0.000000000000e+000
          1.267023895491e+002 0.000000000000e+000 0.000000000000e+000
          8.623136018348e+001 1.500000000000e+001 0.000000000000e+000
          8.784898578901e+001 2.000000000000e+001 0.000000000000e+000
          8.870757443665e+001 1.000000000000e+001 0.000000000000e+000
          8.623136018382e+001 5.000000000000e+000 0.000000000000e+000
          8.784898578969e+001 0.000000000000e+000 0.000000000000e+000
          4.872472752737e+000 0.000000000000e+000 0.000000000000e+000
          4.204479229380e+000 6.412840757122e-001 0.000000000000e+000
          4.157376851380e+000 0.000000000000e+000 0.000000000000e+000
          5.192892237051e+000 7.280355562789e-001 0.000000000000e+000
          1.306630304579e+000 6.212843344151e-001 0.000000000000e+000
          1.050228457081e+000 0.000000000000e+000 0.000000000000e+000
          1.614006202528e+000 0.000000000000e+000 0.000000000000e+000
          1.266763055794e+001 1.554696422866e+001 0.000000000000e+000
          1.263589100638e+001 1.657720348306e+001 0.000000000000e+000
          1.174268578662e+001 1.633018318031e+001 0.000000000000e+000
          6.588835695415e+000 7.505681085529e+000 0.000000000000e+000
          6.456871838389e+000 6.658671683861e+000 0.000000000000e+000
          7.208099140752e+000 7.038822846307e+000 0.000000000000e+000
          4.412623338166e+000 9.138856431549e+000 0.000000000000e+000
          4.024185797397e+000 8.708923235630e+000 0.000000000000e+000
          4.601447447338e+000 8.507292699647e+000 0.000000000000e+000
          5.325995059827e-001 6.308307298123e+000 0.000000000000e+000
          0.000000000000e+000 6.666666666655e+000 0.000000000000e+000
          0.000000000000e+000 6.153846153835e+000 0.000000000000e+000
          3.986461521768e+000 8.146114708182e+000 0.000000000000e+000
          2.411603373059e+000 6.510912162016e+000 0.000000000000e+000
          1.807525763324e+000 6.938080373464e+000 0.000000000000e+000
          1.686779352680e+000 6.178928843543e+000 0.000000000000e+000
          2.510760620997e+000 7.229076682239e+000 0.000000000000e+000
          3.166991983438e+000 6.906135870389e+000 0.000000000000e+000
          3.452788915829e+000 6.276851216781e+000 0.000000000000e+000
          3.340122000742e+000 5.656365440432e+000 0.000000000000e+000
          4.047936562877e+000 5.873561587395e+000 0.000000000000e+000
          1.802463974828e+000 1.292744708026e+001 0.000000000000e+000
          1.383967161336e+000 1.330299552906e+001 0.000000000000e+000
          1.329690820161e+000 1.266495373033e+001 0.000000000000e+000
          2.267922292389e+000 1.431116835808e+001 0.000000000000e+000
          2.854613987538e+000 1.466581611369e+001 0.000000000000e+000
          2.339869278674e+000 1.493776402241e+001 0.000000000000e+000
          4.690956878046e+000 3.115726773737e+000 0.000000000000e+000
          4.014773718330e+000 2.850429494150e+000 0.000000000000e+000
          4.643493383296e+000 2.293565471327e+000 0.000000000000e+000
          5.186083944243e+000 1.661927139510e+000 0.000000000000e+000
          5.452965511439e+000 2.679881546544e+000 0.000000000000e+000
          5.360460104304e+000 3.539902157655e+000 0.000000000000e+000
          6.197986304192e+000 3.115706366113e+000 0.000000000000e+000
          7.929356606585e-001 1.634705420870e+001 0.000000000000e+000
          1.222819867503e+000 1.599517159419e+001 0.000000000000e+000
          1.215723647926e+000 1.546209040954e+001 0.000000000000e+000
          1.770601276021e+000 1.521217632514e+001 0.000000000000e+000
          1.242830150061e+000 1.493919370237e+001 0.000000000000e+000
          1.166444124506e+000 4.610115997312e+000 0.000000000000e+000
          1.851620547934e+000 4.486892013458e+000 0.000000000000e+000
          1.494152702314e+000 5.145235789232e+000 0.000000000000e+000
          1.353088107040e+000 4.090803091641e+000 0.000000000000e+000
          3.802567455935e+000 5.084697985980e+000 0.000000000000e+000
          1.014840185783e+000 5.494768572296e+000 0.000000000000e+000
          8.831064584820e-001 5.109311190608e+000 0.000000000000e+000
          1.727903958959e+000 1.618384478933e+001 0.000000000000e+000
          1.343261525342e+000 1.651800241408e+001 0.000000000000e+000
          3.308120627291e+000 8.593311644828e+000 0.000000000000e+000
[...]
      <PointData Scalars="LIQUID_PRESSURE">
        <DataArray type="Float64" Name="LIQUID_PRESSURE" format="ascii">
          1.000466174355e+006 1.001043654495e+006 1.000649752273e+006 1.006173068781e+006 1.006326641924e+006 1.006538495883e+006 1.006509379821e+006 1.007209302602e+006 1.007271633974e+006 1.007203056889e+006 1.006419519805e+006 1.007302914010e+006 1.006080099864e+006 1.007033648706e+006 1.006296497229e+006 1.006656304043e+006 1.007004849402e+006 1.006161663850e+006 1.007178571604e+006 1.007266523273e+006 1.007074851900e+006 1.007099037688e+006 1.006547185592e+006 1.007085598494e+006 1.003734320336e+006 1.003592942889e+006 1.003493358386e+006 1.003756720047e+006 1.003439610819e+006 1.003701268884e+006 1.003592470739e+006 1.003733760577e+006 1.003495994899e+006 1.003756903869e+006 1.004632615032e+006 1.004452864111e+006 1.004399666169e+006 1.004701284820e+006 1.004633329349e+006 1.004309615376e+006 1.004452761027e+006 1.004632114371e+006 1.004399726665e+006 1.004700968143e+006 1.003236615321e+006 1.003032524916e+006 1.002909573739e+006 1.003282497779e+006 1.002840313198e+006 1.003195446979e+006 1.003036491745e+006 1.003228565161e+006 1.002924042174e+006 1.003282971918e+006 1.002828878155e+006 1.002576178816e+006 1.002547153187e+006 1.002808657259e+006 1.002580022091e+006 1.004798281237e+006 1.004716257143e+006 1.004839488282e+006 1.004800189637e+006 1.004842393803e+006 1.004879824432e+006 1.005095779268e+006 1.005052910295e+006 1.004876779212e+006 1.004076635461e+006 1.004029678109e+006 1.003999396502e+006 1.004076679630e+006 1.004029605899e+006 1.002430263832e+006 1.002405726973e+006 1.002279930755e+006 1.002467437676e+006 1.002344338598e+006 1.004364153022e+006 1.004111048676e+006 1.004128729811e+006 1.004364215224e+006 1.004111065650e+006 1.006796315210e+006 1.007123318608e+006 1.006992749570e+006 1.006319717165e+006 1.006221843694e+006 1.006089266213e+006 1.006737867057e+006 1.006652778947e+006 1.006443749671e+006 1.006524531023e+006 1.007215371507e+006 1.007189896991e+006 1.006550562420e+006 1.007164994825e+006 1.006894048854e+006 1.006980474209e+006 1.006548474299e+006 1.007087221376e+006 1.007047962440e+006 1.006854788175e+006 1.007173775166e+006 1.007007405033e+006 1.006861213300e+006 1.006991905467e+006 1.006111471288e+006 1.006176156440e+006 1.006089492588e+006 1.006984855013e+006 1.006956045570e+006 1.006281237733e+006 1.006224555887e+006 1.007311927969e+006 1.006532309471e+006 1.007257171361e+006 1.006895497514e+006 1.006885185803e+006 1.006951472163e+006 1.006307560616e+006 1.006128287519e+006 1.006094417340e+006 1.006865956078e+006 1.006305631527e+006 1.006077125350e+006 1.006082393720e+006 1.006909150057e+006 1.006100241764e+006 1.006079534235e+006 1.006996855848e+006 1.006447223975e+006 1.006200895132e+006 1.006531079424e+006 1.006089441286e+006 1.006163347860e+006 1.006782916888e+006 1.006164471739e+006 1.006104438636e+006 1.006795774268e+006 1.006114841055e+006 1.006243472074e+006 1.006283396700e+006 1.006152696645e+006 1.006307153170e+006 1.006139651022e+006 1.006288820649e+006 1.006364227022e+006 1.006272162026e+006 1.006473813222e+006 1.007001568611e+006 1.006905575074e+006 1.007071789469e+006 1.006126229457e+006 1.006762067499e+006 1.007317768133e+006 1.006903512344e+006 1.006789857817e+006 1.006340322332e+006 1.006153389826e+006 1.006596664159e+006 1.006407834415e+006 1.006251017875e+006 1.006162591243e+006 1.006179788505e+006 1.006836425239e+006 1.007049665684e+006 1.006898744962e+006 1.007056639650e+006 1.007262481235e+006 1.006583659217e+006 1.007152592019e+006 1.006423306219e+006 1.006092069993e+006 1.006822407112e+006 1.006190935766e+006 1.006690752250e+006 1.006857925872e+006 1.007043571940e+006 1.006043307989e+006 1.007018444283e+006 1.006951133663e+006 1.006361305832e+006 1.007200578904e+006 1.006260849803e+006 1.006421611219e+006 1.006141087811e+006 1.006214190655e+006 1.006886434575e+006 1.007269736275e+006 1.006643620990e+006 1.007006051463e+006 1.007289039028e+006 1.007268747881e+006 1.006098705039e+006 1.007255415856e+006 1.006419374712e+006 1.007064781113e+006 1.006235002802e+006 1.006197798700e+006 1.007013249353e+006 1.007253604462e+006 1.006824434099e+006 1.006108761784e+006 1.006060507881e+006 1.006115072869e+006 1.006643853991e+006 1.006133658302e+006 1.006176769898e+006 1.006269903510e+006 1.006078364607e+006 1.006605189748e+006 1.007265074015e+006 1.005404875850e+006 1.005399524171e+006 1.006912930354e+006 1.007265630348e+006 1.006054053150e+006 1.006620634710e+006 1.006169038993e+006 1.007109791231e+006 1.006479571144e+006 1.007214673075e+006 1.006101985875e+006 1.006525859258e+006 1.006115922627e+006 1.007007407311e+006 1.007126882780e+006 1.006184219000e+006 1.007219056068e+006 1.006084913686e+006 1.006142188545e+006 1.006738618824e+006 1.006225572977e+006 1.006477621113e+006 1.006430351244e+006 1.006991559874e+006 1.006977123191e+006 1.006061078686e+006 1.007365789961e+006 1.006671338905e+006 1.006540529445e+006 1.006563481554e+006 1.007102640298e+006 1.007075436812e+006 1.007100285715e+006 1.007104979421e+006 1.006683965762e+006 1.006909924755e+006 1.006733013601e+006 1.006071893315e+006 1.006469503273e+006 1.006957303163e+006 1.006919697374e+006 1.007024445550e+006 1.007044330406e+006 1.006803190287e+006 1.007042576562e+006 1.006731252026e+006 1.007028333721e+006 1.006876652751e+006 1.007069998391e+006 1.007043782499e+006 1.005261293580e+006 1.005267739052e+006 1.005473034168e+006 1.005579258696e+006 1.005420390722e+006 1.005271676876e+006 1.005217902483e+006 1.005289762978e+006 1.005514698699e+006 1.005593135772e+006 1.005443389778e+006 1.005283105098e+006 1.005606151325e+006 1.005390162889e+006 1.005553992196e+006 1.006013463236e+006 1.005606461811e+006 1.005498938409e+006 1.005388290134e+006 1.005611688692e+006 1.005535899976e+006 1.006013088535e+006 1.005598509043e+006 1.005501213858e+006 1.006152256180e+006 1.006187524588e+006 1.006112129316e+006 1.006225714618e+006 1.006086563936e+006 1.006162912525e+006 1.006187513754e+006 1.006152233844e+006 1.006112079274e+006 1.006225709443e+006 1.006086557806e+006 1.006162920368e+006 1.005939374064e+006 1.006229743286e+006 1.005928991453e+006 1.006110683668e+006 1.005849049527e+006 1.006011770547e+006 1.006229726818e+006 1.005939434579e+006 1.005928949281e+006 1.006110643797e+006 1.005849048324e+006 1.006011757206e+006 1.006447711964e+006 1.006322026296e+006 1.006122934529e+006 1.006259331694e+006 1.006322053402e+006 1.006447855311e+006 1.006122950628e+006 1.006258908846e+006 1.006084645892e+006 1.005710249632e+006 1.006123367030e+006 1.005835002405e+006 1.006047222244e+006 1.006048626751e+006 1.005710205019e+006 1.006084648882e+006 1.006123559243e+006 1.005835038684e+006 1.006047265383e+006 1.006048629881e+006 1.005579851449e+006 1.005542181514e+006 1.005679249491e+006 1.005578709635e+006 1.005542467182e+006 1.005678902542e+006 1.006261055875e+006 1.006375912466e+006 1.006216037954e+006 1.006261066695e+006 1.006376049060e+006 1.006216120212e+006 1.006097112327e+006 1.006097245084e+006 1.005839992850e+006 1.005788090731e+006 1.005504706765e+006 1.005687844260e+006 1.005839279212e+006 1.005688032015e+006 1.006166912865e+006 1.006083979276e+006 1.006056867593e+006 1.006184435728e+006 1.006166898279e+006 1.006184430020e+006 1.005523925307e+006 1.005660046965e+006 1.005525734554e+006 1.006338976445e+006 1.006489254065e+006 1.006489626590e+006 1.006339458663e+006 1.005973093282e+006 1.005719832694e+006 1.005719866689e+006 1.006082330522e+006 1.005921309613e+006 1.006082341106e+006 1.006046854538e+006 1.005973253277e+006 1.006046829472e+006 1.006281715385e+006 1.006281669142e+006 1.006153588218e+006 1.006304313651e+006 1.006304350969e+006 1.005611758059e+006 1.005305893882e+006 1.005609576886e+006 1.006216475820e+006 1.005217225876e+006 1.005205515944e+006 1.005211866556e+006 1.005191180743e+006 1.004935787581e+006 1.005174041328e+006 1.004922563240e+006 1.006296655389e+006 1.006366526814e+006 1.006635838475e+006 1.006784396418e+006 1.006502598022e+006 1.006838005225e+006 1.007291687482e+006 1.006587780180e+006 1.007259108573e+006 1.006840173080e+006 1.006487803650e+006 1.006744229604e+006 1.006674970406e+006 1.006308364547e+006 1.000580405350e+006 1.001479430407e+006 1.001004721172e+006 1.007089907911e+006 1.006445644790e+006 1.006931011810e+006 1.007078747238e+006 1.006669748522e+006 1.007033871739e+006 1.006043152638e+006 1.006788550554e+006 1.006666369672e+006 1.007286920211e+006 1.006876519088e+006 1.006357129790e+006 1.006395092119e+006 1.006656286229e+006 1.007264789185e+006 1.006332956394e+006 1.007113651914e+006 1.006639548708e+006 1.007052112274e+006 1.006338783434e+006 1.006317125213e+006 1.006335155502e+006 1.006887501392e+006 1.006330001277e+006 1.007076896566e+006 1.006724075594e+006 1.006830833160e+006 1.007060688134e+006 1.006822392609e+006 1.006431614509e+006 1.006893770318e+006 1.006539074629e+006 1.006134378823e+006 1.006740552860e+006 1.007091987765e+006 1.006584562845e+006 1.006173378715e+006 1.006234912158e+006 1.006552183260e+006 1.006574688398e+006 1.006548484554e+006 1.006857770142e+006 1.006875993399e+006 1.007092109462e+006 1.006702588501e+006 1.006848451098e+006 1.006234508224e+006 1.007157527791e+006 1.006157052031e+006 1.006706005902e+006 1.006533172316e+006 1.006640542223e+006 1.006797886963e+006 1.006121415570e+006 1.006274123494e+006 1.007078639841e+006 1.006150477582e+006 1.006199191655e+006 1.006828077031e+006 1.006849259845e+006 1.006258950467e+006 1.006315610657e+006 1.006276178658e+006 1.006562433875e+006 1.006229079917e+006 1.006748748610e+006 1.006837077194e+006 1.006815282449e+006 1.006259026626e+006 1.006442734262e+006 1.006971496574e+006 1.007162106918e+006 1.006818103722e+006 1.006363741279e+006 1.006423715845e+006 1.006174183184e+006 1.006100466795e+006 1.006818259329e+006 1.007118487084e+006 1.006025255416e+006 1.006095001153e+006 1.006861576332e+006 1.007297618816e+006 1.006727102159e+006 1.006171501517e+006 1.006912867670e+006 1.007038844771e+006 1.006669744268e+006 1.006291230921e+006 1.007102754597e+006 1.006536349028e+006 1.006668948985e+006 1.006624217851e+006 1.006629105957e+006 1.006083541895e+006 1.006272147466e+006 1.006779245871e+006 1.007149065727e+006 1.006579222460e+006 1.006127930777e+006 1.006441050817e+006 1.006813866854e+006 1.006836115164e+006 1.007203911147e+006 1.006367109981e+006 1.006148967528e+006 1.006990845564e+006 1.007033553610e+006 1.006996570569e+006 1.006681289608e+006 1.006064140068e+006 1.006629997638e+006 1.007145365275e+006 1.006547257054e+006 1.007154078420e+006 1.007134650726e+006 1.006864596083e+006 1.006168206359e+006 1.007100686791e+006 1.007193976786e+006 1.006092814048e+006 1.006265045848e+006 1.006925204645e+006 1.006580253039e+006 1.006339888075e+006 1.006407054745e+006 1.007116212950e+006 1.006578018551e+006 1.006851025574e+006 1.007205051787e+006 1.006316855244e+006 1.006511452538e+006 1.006832678775e+006 1.006389845088e+006 1.006493576439e+006 1.006927860278e+006 1.006243100550e+006 1.006362806164e+006 1.006312208555e+006 1.007196230289e+006 1.007315453101e+006 1.006123299160e+006 1.006208541204e+006 1.006330480790e+006 1.006908172161e+006 1.006575240282e+006 1.006613431779e+006 1.007276558495e+006 1.007023751780e+006 1.006627717792e+006 1.006722580915e+006 1.007024459755e+006 1.007114745855e+006 1.006825553789e+006 1.006751557213e+006 1.006333204817e+006 1.006505945471e+006 1.006216794052e+006 1.007303442003e+006 1.006021759139e+006 1.006882310145e+006 1.006759442996e+006 1.006414641312e+006 1.006204502621e+006 1.006950285571e+006 1.006151277419e+006 1.006048404381e+006 1.006463152844e+006 1.007034442600e+006 1.006537837512e+006 1.006907618931e+006 1.006722447355e+006 1.006503215692e+006 1.007104986855e+006 1.006323724552e+006 1.005997817923e+006 1.007127003243e+006 1.006476345507e+006 1.007199396981e+006 1.006264888588e+006 1.007000267147e+006 1.006596130559e+006 1.006079099776e+006 1.007000256611e+006 1.006419018347e+006 1.007073456653e+006 1.006190508101e+006 1.006572443887e+006 1.006802880898e+006 1.006142655686e+006 1.006181832964e+006 1.006885790985e+006 1.000713710318e+006 1.000653872108e+006 1.000502502297e+006 1.006447685868e+006 1.006638495403e+006 1.007160150468e+006 1.006918507281e+006 1.006280023115e+006 1.007092399008e+006 1.006465992073e+006 1.006143673368e+006 1.007001760140e+006 1.006478097588e+006 1.005204416204e+006 1.005215710230e+006 1.006637743261e+006 1.007099882751e+006 1.006704276497e+006 1.006470382859e+006 1.006898161539e+006 1.006127474707e+006 1.006896306113e+006 1.006293054358e+006 1.006937832069e+006 1.006501742302e+006 1.006760659468e+006 1.006487004200e+006 1.006399988339e+006 1.002362899572e+006 1.001370568611e+006 1.006909867725e+006 1.006107581403e+006 1.006198209316e+006 1.006766054807e+006 1.006239856798e+006 1.006491697539e+006 1.006377884294e+006 1.006430546118e+006 1.006374092729e+006 1.006425434484e+006 1.006157618289e+006 1.006375318046e+006 1.006154368346e+006 1.006067332938e+006 1.006161463982e+006 1.006373830442e+006 1.006449098489e+006 1.006372946028e+006 1.006986318638e+006 1.006511580531e+006 1.006434851505e+006 1.006665386511e+006 1.006479459838e+006 1.006131370733e+006 1.007049590914e+006 1.007173114831e+006 1.006100246008e+006 1.006011163858e+006 1.007264190919e+006 1.006079167448e+006 1.006326156382e+006 1.006910155106e+006 1.000924820702e+006 1.000828752263e+006 1.006837814378e+006 1.007250845068e+006 1.006836880506e+006 1.007024038329e+006 1.006918278990e+006 1.006783954416e+006 1.006283636174e+006 1.004760365901e+006 1.004754673610e+006 1.006900201685e+006 1.006879678202e+006 1.006256559215e+006 1.006861749604e+006 1.006827643528e+006 1.006942725448e+006 1.007122388195e+006 1.006767626485e+006 1.006149092213e+006 1.000312247042e+006 1.000260851150e+006 1.006929200935e+006 1.007123079036e+006 1.007072390406e+006 1.006385816048e+006 1.006942142961e+006 1.006854661402e+006 1.007035728575e+006 1.006706334962e+006 1.006187595871e+006 1.006370489205e+006 1.006398052323e+006 1.006644536450e+006 1.006481261995e+006 1.006359162746e+006 1.006663509512e+006 1.006419262241e+006 1.006409276066e+006 1.006429113006e+006 1.006254996153e+006 1.006394424128e+006 1.006417895283e+006 1.006555557006e+006 1.006334818224e+006 1.006520089908e+006 1.006333517255e+006 1.006570850283e+006 1.006441834852e+006 1.006583156108e+006 1.006603458301e+006 1.006582869507e+006 1.006595720222e+006 1.006469341786e+006 1.006427140384e+006 1.006286481304e+006 1.006429005177e+006 1.006290296316e+006 1.006806095831e+006 1.006516968566e+006 1.006691495951e+006 1.006522105957e+006 1.006698461033e+006 1.006410310052e+006 1.006323230687e+006 1.006420948392e+006 1.006368389734e+006 1.006329834651e+006 1.006409798367e+006 1.006415616576e+006 1.006337277749e+006 1.006499393698e+006 1.006636477007e+006 1.006501585665e+006 1.006665765109e+006 1.006304504547e+006 1.006382741475e+006 1.006297573282e+006 1.006373578706e+006 1.006623867950e+006 1.006570969781e+006 1.006624232662e+006 1.006569903051e+006 1.006497663074e+006 1.006260259706e+006 1.006698363561e+006 1.006699771928e+006 1.006486479132e+006 1.006468566991e+006 1.006262145715e+006 1.006499100430e+006 1.006692975047e+006 1.006699675004e+006 1.006487991079e+006 1.006470521714e+006 1.006384028087e+006 1.006353461467e+006 1.006533046087e+006 1.006382448653e+006 1.006343785572e+006 1.006535580435e+006 1.006819394410e+006 1.006630386958e+006 1.006716429903e+006 1.006811636391e+006 1.006612252438e+006 1.006715799673e+006 1.006204672582e+006 1.006596295247e+006 1.006219911584e+006 1.006209208616e+006 1.006645836324e+006 1.006242250844e+006 1.006882835048e+006 1.006263574705e+006 1.006853061515e+006 1.006280751237e+006 1.006369157404e+006 1.006758876929e+006 1.006371384173e+006 1.006750365498e+006 1.006296883536e+006 1.006455107720e+006 1.006409189285e+006 1.006298630899e+006 1.006455016002e+006 1.006409488354e+006 1.006286446672e+006 1.006539098988e+006 1.006285400607e+006 1.006539045865e+006 1.006628203145e+006 1.006633026576e+006 1.006572113392e+006 1.006569880325e+006 1.006240290618e+006 1.006226247805e+006 1.006316116359e+006 1.006853543208e+006 1.006297421501e+006 1.006609224084e+006 1.006746407384e+006 1.006721216990e+006 1.006339937189e+006 1.006350655870e+006 1.006350345381e+006 1.006777116034e+006 1.006396871194e+006 1.006774797442e+006 1.006390482507e+006 1.006584125223e+006 1.006264702550e+006 1.006564960439e+006 1.006252050589e+006 1.006270561130e+006 1.006946825094e+006 1.006379734390e+006 1.006145160743e+006 1.006969372049e+006 1.006957996564e+006 1.006866001476e+006 1.006754032128e+006 1.006656452218e+006 1.006790195835e+006 1.006761419984e+006 1.006723385216e+006 1.006335273864e+006 1.006564022826e+006 1.006196032014e+006 1.006595762204e+006 1.006383335993e+006 1.006262413653e+006 1.006397187508e+006 1.006369335556e+006 1.006357944664e+006 1.006979815748e+006 1.007032828060e+006 1.006445877914e+006 1.006864159429e+006 1.006463749846e+006 1.006590000504e+006 1.006860582596e+006 1.000000000000e+006 1.000000000000e+006 1.000267792326e+006 1.006882803893e+006 1.007162781593e+006 1.006418892664e+006 1.006983306823e+006 1.006981190090e+006 1.006221401190e+006 1.007089256965e+006 1.006585562573e+006 1.007050069258e+006 1.006364704560e+006 1.006274289432e+006 1.006254679283e+006 1.006198049984e+006 1.006483052169e+006 1.006379020310e+006 1.006932952967e+006 1.007113819974e+006 1.006606189843e+006 1.006308906850e+006 1.006347987392e+006 1.006945307206e+006 1.006886857686e+006 1.006905290842e+006 1.004885599908e+006 1.004882886024e+006 1.007184964486e+006 1.006268040277e+006 1.006268384460e+006 1.006434080475e+006 1.006500019638e+006 1.006993938628e+006 1.006343440525e+006 1.006305807564e+006 1.006109747499e+006 1.006524610782e+006 1.006664020396e+006 1.006343032736e+006 1.006584420387e+006 1.006293066208e+006 1.001777709699e+006 1.001434875918e+006 1.007084255791e+006 1.006814260485e+006 1.001697450640e+006 1.007062759501e+006 1.006582568200e+006 1.007076740702e+006 1.006690235717e+006 1.006630628734e+006 1.000533454193e+006 1.007119137746e+006 1.007008459022e+006 1.006173159673e+006 1.006406272102e+006 1.007125170973e+006 1.006378073734e+006 1.006376606187e+006 1.007157520254e+006 1.006770150308e+006 1.006652588384e+006 1.006481223415e+006 1.007057606080e+006 1.006913344380e+006 1.006206723757e+006 1.006553493251e+006 1.006653311157e+006 1.006793221972e+006 1.006448446408e+006 1.006357926091e+006 1.007095804985e+006 1.006835920317e+006 1.007107496496e+006 1.007090736415e+006 1.006815464108e+006 1.006153519863e+006 1.006245909614e+006 1.001930205656e+006 1.006912172551e+006 1.000778252721e+006 1.006399947512e+006 1.006115548494e+006 1.006594052664e+006 1.006346312836e+006 1.006819027258e+006 1.007161264781e+006 1.006851366747e+006 1.006905497963e+006 1.007051432967e+006 1.007024515390e+006 1.007053350440e+006 1.007109520265e+006 1.007007206571e+006 1.001871604555e+006 1.002008466619e+006 1.001203588802e+006 1.002201092657e+006 1.006876773202e+006 1.002044061543e+006 1.002198961536e+006 1.006223605297e+006 1.006873139059e+006 1.006999975267e+006 1.007076830235e+006 1.002103562832e+006 1.006460013222e+006 1.006491612597e+006 1.006266368982e+006 1.006266105885e+006 1.006483779207e+006 1.006480218180e+006 1.007095424293e+006 1.006887626538e+006 1.006231985976e+006 1.006235444230e+006 1.006207305579e+006 1.006224482611e+006 1.006874129123e+006 1.006971127289e+006 
        </DataArray>
        <DataArray type="Float64" Name="MEAN_PRESSURE" format="ascii">