<?xml version="1.0"?>
<VTKFile type="UnstructuredGrid" version="0.1" byte_order="LittleEndian">
  <UnstructuredGrid>
    <Piece NumberOfPoints="963" NumberOfCells="1758">
      <Points>
        <DataArray type="Float64" NumberOfComponents="3" format="ascii">
          1.600262034769e+002 1.257989505921e+001 0.000000000000e+000
          1.635346199106e+002 2.000000000000e+001 0.000000000000e+000
          1.554515002484e+002 2.000000000000e+001 0.000000000000e+000
          3.459306441575e+000 1.667621982453e+001 0.000000000000e+000
          3.062266634850e+000 1.705413688405e+001 0.000000000000e+000
          2.873380769063e+000 1.650527725632e+001 0.000000000000e+000
          1.514088444034e+000 1.865189448105e+001 0.000000000000e+000
          1.967902677551e+000 1.834103489750e+001 0.000000000000e+000
          2.034564522234e+000 1.890806711991e+001 0.000000000000e+000
          2.478275273162e+000 1.702762299110e+001 0.000000000000e+000
          2.952621433467e+000 1.774357373580e+001 0.000000000000e+000
          2.237893542067e+000 1.782457469610e+001 0.000000000000e+000
          3.313583922780e+000 3.274674552047e+000 0.000000000000e+000
          2.561432712787e+000 3.156040447793e+000 0.000000000000e+000
          3.047531989640e+000 2.714594415171e+000 0.000000000000e+000
          2.750804692284e+000 3.936058190693e+000 0.000000000000e+000
          2.599039179818e+000 2.451529939148e+000 0.000000000000e+000
          3.139686649742e+000 2.186924052088e+000 0.000000000000e+000
          1.919984553221e+000 3.358010194268e+000 0.000000000000e+000
          1.960900304591e+000 2.773319745251e+000 0.000000000000e+000
          1.894565400391e+000 1.733316857565e+001 0.000000000000e+000
          0.000000000000e+000 1.538461538461e+001 0.000000000000e+000
          5.816229249735e-001 1.567919247147e+001 0.000000000000e+000
          0.000000000000e+000 1.589743589743e+001 0.000000000000e+000
          9.766405669483e+001 2.000000000000e+001 0.000000000000e+000
          1.010672711393e+002 1.500000000000e+001 0.000000000000e+000
          1.029329279907e+002 2.000000000000e+001 0.000000000000e+000
          9.588503785413e+001 1.500000000000e+001 0.000000000000e+000
          1.039231647117e+002 1.000000000000e+001 0.000000000000e+000
          9.860830811271e+001 1.000000000000e+001 0.000000000000e+000
          1.010672711397e+002 5.000000000000e+000 0.000000000000e+000
          9.766405669557e+001 0.000000000000e+000 0.000000000000e+000
          1.029329279915e+002 0.000000000000e+000 0.000000000000e+000
          9.588503785449e+001 5.000000000000e+000 0.000000000000e+000
          7.892434178002e+001 2.000000000000e+001 0.000000000000e+000
          8.173808356948e+001 1.500000000000e+001 0.000000000000e+000
          8.328058896910e+001 2.000000000000e+001 0.000000000000e+000
          7.679274808893e+001 1.514423393202e+001 0.000000000000e+000
          7.970503892166e+001 1.000000000000e+001 0.000000000000e+000
          8.409930620613e+001 1.000000000000e+001 0.000000000000e+000
          8.173808356980e+001 5.000000000000e+000 0.000000000000e+000
          7.892434178065e+001 0.000000000000e+000 0.000000000000e+000
          8.328058896976e+001 0.000000000000e+000 0.000000000000e+000
          7.679274808925e+001 4.855766067979e+000 0.000000000000e+000
          1.084583939765e+002 2.000000000000e+001 0.000000000000e+000
          1.122011528880e+002 1.500000000000e+001 0.000000000000e+000
          1.142529496098e+002 2.000000000000e+001 0.000000000000e+000
          1.065018792644e+002 1.500000000000e+001 0.000000000000e+000
          1.153419838410e+002 1.000000000000e+001 0.000000000000e+000
          1.094968549120e+002 1.000000000000e+001 0.000000000000e+000
          1.122011528884e+002 5.000000000000e+000 0.000000000000e+000
          1.084583939773e+002 0.000000000000e+000 0.000000000000e+000
          1.142529496106e+002 0.000000000000e+000 0.000000000000e+000
          1.065018792648e+002 5.000000000000e+000 0.000000000000e+000
          1.181779812237e+002 1.500000000000e+001 0.000000000000e+000
          1.203297004775e+002 2.000000000000e+001 0.000000000000e+000
          1.214717707847e+002 1.000000000000e+001 0.000000000000e+000
          1.181779812242e+002 5.000000000000e+000 0.000000000000e+000
          1.203297004784e+002 0.000000000000e+000 0.000000000000e+000
          7.477039199538e+001 2.000000000000e+001 0.000000000000e+000
          7.551483469771e+001 1.000000000000e+001 0.000000000000e+000
          7.296959467356e+001 1.385646386579e+001 0.000000000000e+000
          7.477039199599e+001 0.000000000000e+000 0.000000000000e+000
          7.296959467379e+001 6.143536134207e+000 0.000000000000e+000
          6.918477198508e+001 1.366665532880e+001 0.000000000000e+000
          6.746477463053e+001 1.000000000000e+001 0.000000000000e+000
          7.151921701478e+001 1.000000000000e+001 0.000000000000e+000
          6.918477198529e+001 6.333344671202e+000 0.000000000000e+000
          9.263986346551e+001 2.000000000000e+001 0.000000000000e+000
          9.094345943471e+001 1.500000000000e+001 0.000000000000e+000
          9.354026529380e+001 1.000000000000e+001 0.000000000000e+000
          9.263986346623e+001 0.000000000000e+000 0.000000000000e+000
          9.094345943506e+001 5.000000000000e+000 0.000000000000e+000
          1.244344522558e+002 1.503312574389e+001 0.000000000000e+000
          1.267023895482e+002 2.000000000000e+001 0.000000000000e+000
          1.285510028831e+002 1.020485663255e+001 0.000000000000e+000
          1.244344522563e+002 5.033125743893e+000 0.000000000000e+000
          1.267023895491e+002 0.000000000000e+000 0.000000000000e+000
          8.623136018348e+001 1.500000000000e+001 0.000000000000e+000
          8.784898578901e+001 2.000000000000e+001 0.000000000000e+000
          8.870757443665e+001 1.000000000000e+001 0.000000000000e+000
          8.623136018382e+001 5.000000000000e+000 0.000000000000e+000
          8.784898578969e+001 0.000000000000e+000 0.000000000000e+000
          4.872472752737e+000 0.000000000000e+000 0.000000000000e+000
          4.204479229380e+000 6.412840757122e-001 0.000000000000e+000
          4.157376851380e+000 0.000000000000e+000 0.000000000000e+000
          5.192892237051e+000 7.280355562789e-001 0.000000000000e+000
          1.306630304579e+000 6.212843344151e-001 0.000000000000e+000
          1.050228457081e+000 0.000000000000e+000 0.000000000000e+000
          1.614006202528e+000 0.000000000000e+000 0.000000000000e+000
          1.266763055794e+001 1.554696422866e+001 0.000000000000e+000
          1.263589100638e+001 1.657720348306e+001 0.000000000000e+000
          1.174268578662e+001 1.633018318031e+001 0.000000000000e+000
          6.588835695415e+000 7.505681085529e+000 0.000000000000e+000
          6.456871838389e+000 6.658671683861e+000 0.000000000000e+000
          7.208099140752e+000 7.038822846307e+000 0.000000000000e+000
          4.412623338166e+000 9.138856431549e+000 0.000000000000e+000
          4.024185797397e+000 8.708923235630e+000 0.000000000000e+000
          4.601447447338e+000 8.507292699647e+000 0.000000000000e+000
          5.325995059827e-001 6.308307298123e+000 0.000000000000e+000
          0.000000000000e+000 6.666666666655e+000 0.000000000000e+000
          0.000000000000e+000 6.153846153835e+000 0.000000000000e+000
          3.986461521768e+000 8.146114708182e+000 0.000000000000e+000
          2.411603373059e+000 6.510912162016e+000 0.000000000000e+000
          1.807525763324e+000 6.938080373464e+000 0.000000000000e+000
          1.686779352680e+000 6.178928843543e+000 0.000000000000e+000
          2.510760620997e+000 7.229076682239e+000 0.000000000000e+000
          3.166991983438e+000 6.906135870389e+000 0.000000000000e+000
          3.452788915829e+000 6.276851216781e+000 0.000000000000e+000
          3.340122000742e+000 5.656365440432e+000 0.000000000000e+000
          4.047936562877e+000 5.873561587395e+000 0.000000000000e+000
          1.802463974828e+000 1.292744708026e+001 0.000000000000e+000
          1.383967161336e+000 1.330299552906e+001 0.000000000000e+000
          1.329690820161e+000 1.266495373033e+001 0.000000000000e+000
          2.267922292389e+000 1.431116835808e+001 0.000000000000e+000
          2.854613987538e+000 1.466581611369e+001 0.000000000000e+000
          2.339869278674e+000 1.493776402241e+001 0.000000000000e+000
          4.690956878046e+000 3.115726773737e+000 0.000000000000e+000
          4.014773718330e+000 2.850429494150e+000 0.000000000000e+000
          4.643493383296e+000 2.293565471327e+000 0.000000000000e+000
          5.186083944243e+000 1.661927139510e+000 0.000000000000e+000
          5.452965511439e+000 2.679881546544e+000 0.000000000000e+000
          5.360460104304e+000 3.539902157655e+000 0.000000000000e+000
          6.197986304192e+000 3.115706366113e+000 0.000000000000e+000
          7.929356606585e-001 1.634705420870e+001 0.000000000000e+000
          1.222819867503e+000 1.599517159419e+001 0.000000000000e+000
          1.215723647926e+000 1.546209040954e+001 0.000000000000e+000
          1.770601276021e+000 1.521217632514e+001 0.000000000000e+000
          1.242830150061e+000 1.493919370237e+001 0.000000000000e+000
          1.166444124506e+000 4.610115997312e+000 0.000000000000e+000
          1.851620547934e+000 4.486892013458e+000 0.000000000000e+000
          1.494152702314e+000 5.145235789232e+000 0.000000000000e+000
          1.353088107040e+000 4.090803091641e+000 0.000000000000e+000
          3.802567455935e+000 5.084697985980e+000 0.000000000000e+000
          1.014840185783e+000 5.494768572296e+000 0.000000000000e+000
          8.831064584820e-001 5.109311190608e+000 0.000000000000e+000
          1.727903958959e+000 1.618384478933e+001 0.000000000000e+000
          1.343261525342e+000 1.651800241408e+001 0.000000000000e+000
          3.308120627291e+000 8.593311644828e+000 0.000000000000e+000
[...]
      <PointData Scalars="LIQUID_PRESSURE">
        <DataArray type="Float64" Name="LIQUID_PRESSURE" format="ascii">
          1.019287051459e+006 1.017589138653e+006 1.021480120814e+006 1.095692881487e+006 1.095760219444e+006 1.095898893033e+006 1.095996528723e+006 1.096543683903e+006 1.096588504513e+006 1.096441468714e+006 1.095807230579e+006 1.096573039282e+006 1.095598976453e+006 1.096310798458e+006 1.095733798618e+006 1.096014322718e+006 1.096274493749e+006 1.095641795622e+006 1.096523701492e+006 1.096591205028e+006 1.096449195903e+006 1.096261482713e+006 1.095798926823e+006 1.096249892029e+006 1.062770395842e+006 1.060567161850e+006 1.059402007579e+006 1.063578057858e+006 1.058756107912e+006 1.062201757098e+006 1.060567621890e+006 1.062770146957e+006 1.059408990723e+006 1.063578365288e+006 1.073926386061e+006 1.072249857550e+006 1.071361978969e+006 1.074992630065e+006 1.073547692586e+006 1.070744449666e+006 1.072249903916e+006 1.073927189542e+006 1.071361904943e+006 1.074994235205e+006 1.055473302484e+006 1.052983751273e+006 1.051496801830e+006 1.056707453428e+006 1.050457165241e+006 1.054906326294e+006 1.052996118294e+006 1.055450707426e+006 1.051553273418e+006 1.056708605152e+006 1.049048060381e+006 1.046420092711e+006 1.045693576512e+006 1.048918539267e+006 1.046314882261e+006 1.076068378543e+006 1.075536172269e+006 1.076879151966e+006 1.076070114625e+006 1.076879016258e+006 1.078499742424e+006 1.079823508710e+006 1.077881926168e+006 1.078490415998e+006 1.066263073825e+006 1.066892769740e+006 1.065556567940e+006 1.066263592971e+006 1.066892929367e+006 1.043710018631e+006 1.042852799032e+006 1.041317910168e+006 1.044156456092e+006 1.042301854609e+006 1.069991664451e+006 1.068468236483e+006 1.068295541667e+006 1.069991530915e+006 1.068468059011e+006 1.095990801478e+006 1.096392864482e+006 1.096300295219e+006 1.095638120421e+006 1.095746154966e+006 1.095572237212e+006 1.096191380002e+006 1.095466059444e+006 1.095319327807e+006 1.095427817763e+006 1.096285863988e+006 1.096302812248e+006 1.095701747299e+006 1.096326950328e+006 1.096215059800e+006 1.096173357007e+006 1.095777509846e+006 1.096172031799e+006 1.096143269942e+006 1.096186501946e+006 1.096416616011e+006 1.096375173510e+006 1.096277592980e+006 1.096265243062e+006 1.095625555710e+006 1.095713475188e+006 1.095613862829e+006 1.096278809628e+006 1.096343828496e+006 1.095805968088e+006 1.095750938895e+006 1.096545036136e+006 1.095878694427e+006 1.096482890946e+006 1.096071591563e+006 1.096189426692e+006 1.096135029010e+006 1.095622729261e+006 1.095513345559e+006 1.095491020026e+006 1.096089987365e+006 1.095636176415e+006 1.095588960387e+006 1.095599896023e+006 1.096309359095e+006 1.095627528285e+006 1.095583360092e+006 1.096411108707e+006 1.095961348141e+006 1.095734576949e+006 1.095977000756e+006 1.095550564572e+006 1.095553123798e+006 1.096209078208e+006 1.095691377049e+006 1.095637414726e+006 1.096112640855e+006 1.095632637926e+006 1.095615959843e+006 1.095630421430e+006 1.095683167704e+006 1.095649564701e+006 1.095557808496e+006 1.095822292729e+006 1.095763509374e+006 1.095628511505e+006 1.095864121383e+006 1.096272647791e+006 1.096071360534e+006 1.096254727133e+006 1.095655727907e+006 1.096204073513e+006 1.096605770168e+006 1.096215715129e+006 1.095983498542e+006 1.095682389235e+006 1.095596106889e+006 1.095922452369e+006 1.095920773820e+006 1.095784450375e+006 1.095563615610e+006 1.095545605766e+006 1.096246882623e+006 1.096236687850e+006 1.096063823206e+006 1.096235417565e+006 1.096505925680e+006 1.096022869421e+006 1.096398195345e+006 1.095924708381e+006 1.095568312722e+006 1.096133265708e+006 1.095691150664e+006 1.096029286790e+006 1.096017853152e+006 1.096194188119e+006 1.095519502245e+006 1.096412876025e+006 1.096355000609e+006 1.095782233603e+006 1.096441459424e+006 1.095605200767e+006 1.095705257097e+006 1.095647178712e+006 1.095723055673e+006 1.096298607711e+006 1.096539824275e+006 1.095943671778e+006 1.096087227632e+006 1.096542511511e+006 1.096530015022e+006 1.095516439072e+006 1.096495812251e+006 1.095921331358e+006 1.096326581643e+006 1.095739982121e+006 1.095727245167e+006 1.096302479400e+006 1.096572710845e+006 1.096258187462e+006 1.095636621582e+006 1.095521311118e+006 1.095656289748e+006 1.096117147789e+006 1.095639080812e+006 1.095659939950e+006 1.095792247351e+006 1.095532470983e+006 1.096085721920e+006 1.096562362342e+006 1.081075356765e+006 1.081076887690e+006 1.096193436742e+006 1.096529422543e+006 1.095473859423e+006 1.095835617700e+006 1.095485327411e+006 1.096105859015e+006 1.095950556879e+006 1.096387556972e+006 1.095576333710e+006 1.096006738106e+006 1.095560119443e+006 1.096390072101e+006 1.096356516750e+006 1.095598190520e+006 1.096542232932e+006 1.095593325537e+006 1.095648256924e+006 1.096053883412e+006 1.095746873833e+006 1.095729018676e+006 1.095892601507e+006 1.096384738406e+006 1.096386985081e+006 1.095578400749e+006 1.096627374372e+006 1.096137394879e+006 1.095763893905e+006 1.095799057901e+006 1.096202790408e+006 1.096207537380e+006 1.096200587238e+006 1.096196041451e+006 1.095869835527e+006 1.096074517536e+006 1.095901082919e+006 1.095538935331e+006 1.095719055362e+006 1.096114926300e+006 1.096112750440e+006 1.096233638205e+006 1.096247314198e+006 1.095976467014e+006 1.096235645728e+006 1.095915535837e+006 1.096206236074e+006 1.096055953548e+006 1.096260189099e+006 1.096247647944e+006 1.082840877998e+006 1.081794573108e+006 1.081846673732e+006 1.083733268693e+006 1.081667864505e+006 1.082745879854e+006 1.081695019662e+006 1.082887712738e+006 1.081868980926e+006 1.083758178052e+006 1.081698034862e+006 1.082764730717e+006 1.085583423767e+006 1.084579892887e+006 1.084319080303e+006 1.086528965268e+006 1.084442908855e+006 1.085322945613e+006 1.084577291165e+006 1.085589511201e+006 1.084301441768e+006 1.086529674768e+006 1.084436422405e+006 1.085325265863e+006 1.091363073551e+006 1.091096290674e+006 1.090745609334e+006 1.091661053667e+006 1.090699084618e+006 1.091334652480e+006 1.091096403649e+006 1.091363223344e+006 1.090745662678e+006 1.091661215078e+006 1.090699154052e+006 1.091334772117e+006 1.089983191734e+006 1.089976924490e+006 1.089343086100e+006 1.090456821336e+006 1.089169575821e+006 1.090025925259e+006 1.089976962494e+006 1.089983357776e+006 1.089343053199e+006 1.090456847455e+006 1.089169593109e+006 1.090025954956e+006 1.092949858713e+006 1.092615881279e+006 1.092207902029e+006 1.092927347133e+006 1.092615651129e+006 1.092949826480e+006 1.092207894926e+006 1.092926526562e+006 1.088843793082e+006 1.087846668149e+006 1.088035770244e+006 1.088728415041e+006 1.087921595078e+006 1.088752613267e+006 1.087846494495e+006 1.088843565639e+006 1.088035606037e+006 1.088728322011e+006 1.087921477075e+006 1.088752405451e+006 1.086461190538e+006 1.086720999505e+006 1.086579177928e+006 1.086459520676e+006 1.086720198505e+006 1.086578189546e+006 1.091966459045e+006 1.092340321609e+006 1.091847649957e+006 1.091966642239e+006 1.092340449209e+006 1.091847718987e+006 1.092119736873e+006 1.092119419260e+006 1.086379753709e+006 1.086952086921e+006 1.085586443802e+006 1.087130918795e+006 1.086379119928e+006 1.087130676523e+006 1.090616126845e+006 1.090840451591e+006 1.090245039477e+006 1.091183588372e+006 1.090616144223e+006 1.091183637267e+006 1.085001394071e+006 1.084849959299e+006 1.085003327183e+006 1.092764712232e+006 1.093009119704e+006 1.093010665786e+006 1.092766150722e+006 1.088009319741e+006 1.088018704418e+006 1.088018714313e+006 1.089879619249e+006 1.089465554321e+006 1.089879660563e+006 1.089179398835e+006 1.088835628733e+006 1.089179333499e+006 1.092203205797e+006 1.092203222429e+006 1.091451485305e+006 1.091829133362e+006 1.091829207171e+006 1.084001043385e+006 1.082978171386e+006 1.083998546459e+006 1.092059738744e+006 1.081946757159e+006 1.081310091622e+006 1.081947261096e+006 1.080003481455e+006 1.079695173173e+006 1.079948963225e+006 1.079662128429e+006 1.095528889078e+006 1.095606497383e+006 1.095772611840e+006 1.095870765156e+006 1.095896611566e+006 1.096147643125e+006 1.096553058519e+006 1.095947018700e+006 1.096552473565e+006 1.096037440957e+006 1.095769873764e+006 1.096198331653e+006 1.095864598992e+006 1.095700998949e+006 1.023076688829e+006 1.026761827394e+006 1.021388346067e+006 1.096207652698e+006 1.095669130120e+006 1.096021024349e+006 1.096204749915e+006 1.096072354072e+006 1.096309356693e+006 1.095533595330e+006 1.096154951461e+006 1.096130669850e+006 1.096534784267e+006 1.096284759271e+006 1.095582639327e+006 1.095637302632e+006 1.095796853186e+006 1.096515453137e+006 1.095765940055e+006 1.096201965045e+006 1.095842874186e+006 1.096184512870e+006 1.095624147036e+006 1.095540560319e+006 1.095570184649e+006 1.095985836057e+006 1.095621447219e+006 1.096196007180e+006 1.095894514234e+006 1.095803080754e+006 1.096072280418e+006 1.095924853627e+006 1.095692305072e+006 1.096243774542e+006 1.096016675040e+006 1.095681217974e+006 1.095914708547e+006 1.096050519417e+006 1.095587015338e+006 1.095301788237e+006 1.095771359221e+006 1.095920236317e+006 1.095522560564e+006 1.095428652709e+006 1.095750677473e+006 1.095956133210e+006 1.096193932913e+006 1.095554005000e+006 1.095749876614e+006 1.095263097390e+006 1.096361676001e+006 1.095563453250e+006 1.095968488788e+006 1.095233108565e+006 1.095354896381e+006 1.096217842481e+006 1.095634088425e+006 1.095544605356e+006 1.096172771214e+006 1.095441429378e+006 1.095450671441e+006 1.095913280093e+006 1.095950848748e+006 1.095634094797e+006 1.095450677549e+006 1.095431392163e+006 1.095507256249e+006 1.095179224072e+006 1.095538832916e+006 1.095813398006e+006 1.095614952185e+006 1.095262085575e+006 1.095379153497e+006 1.095643211990e+006 1.096416697634e+006 1.096217287933e+006 1.095442212232e+006 1.095505667856e+006 1.095553835561e+006 1.095622672698e+006 1.096001744881e+006 1.096278796989e+006 1.095519395854e+006 1.095535214639e+006 1.096147711253e+006 1.096561596721e+006 1.095974851552e+006 1.095562242161e+006 1.095982435382e+006 1.095997636158e+006 1.095674712768e+006 1.095549011943e+006 1.096035951548e+006 1.095571796262e+006 1.095812600046e+006 1.095959988697e+006 1.095950402385e+006 1.095502560919e+006 1.095553649112e+006 1.095979907669e+006 1.096204906890e+006 1.095836243989e+006 1.095510381206e+006 1.095492745363e+006 1.095672792861e+006 1.095742873229e+006 1.096427250227e+006 1.095871789190e+006 1.095496487253e+006 1.095920485592e+006 1.096210146479e+006 1.095824915174e+006 1.095696544835e+006 1.095523381022e+006 1.095827031976e+006 1.096287802260e+006 1.095785341054e+006 1.096313493163e+006 1.096167413388e+006 1.096070731859e+006 1.095472785351e+006 1.096083079920e+006 1.096516412845e+006 1.095625366164e+006 1.095692975360e+006 1.096267919044e+006 1.095727312070e+006 1.095605875896e+006 1.095639901559e+006 1.096197145307e+006 1.095816195294e+006 1.096267764244e+006 1.096445109609e+006 1.095475235895e+006 1.095582592375e+006 1.095847473023e+006 1.095509931587e+006 1.095820717612e+006 1.095768025530e+006 1.095195657151e+006 1.095299493040e+006 1.095691267452e+006 1.096407338738e+006 1.096589671469e+006 1.095383885220e+006 1.095339595693e+006 1.095410256647e+006 1.095802942157e+006 1.095628365828e+006 1.095655437606e+006 1.096560751874e+006 1.096423925879e+006 1.095984664161e+006 1.095691112008e+006 1.095839686455e+006 1.096183343749e+006 1.096054157125e+006 1.096001983283e+006 1.095451212062e+006 1.095546618502e+006 1.095331644477e+006 1.096577324779e+006 1.095523903843e+006 1.096065482975e+006 1.096153832426e+006 1.095898994986e+006 1.095359493361e+006 1.095900432116e+006 1.095547817819e+006 1.095544270011e+006 1.095718879478e+006 1.096035144065e+006 1.095611218391e+006 1.095891791764e+006 1.096022634682e+006 1.095665947371e+006 1.096273882293e+006 1.095447673549e+006 1.095408973886e+006 1.096406167238e+006 1.095867622632e+006 1.096493239698e+006 1.095558018555e+006 1.095821208088e+006 1.095919228005e+006 1.095597561824e+006 1.095983117551e+006 1.095430438435e+006 1.095900493815e+006 1.095642759760e+006 1.095792319707e+006 1.095972247468e+006 1.095311190370e+006 1.095335871141e+006 1.095781936828e+006 1.013499623846e+006 1.011812103563e+006 1.009211265140e+006 1.095681189125e+006 1.095839308143e+006 1.096412756280e+006 1.096215063158e+006 1.095745465460e+006 1.096243387584e+006 1.095692129254e+006 1.095682017373e+006 1.096148337440e+006 1.095736482816e+006 1.078733867972e+006 1.078753388594e+006 1.095840003097e+006 1.096195941094e+006 1.096142573923e+006 1.095761128084e+006 1.095836344741e+006 1.095562942208e+006 1.095922074961e+006 1.095642177881e+006 1.096050431777e+006 1.095996482259e+006 1.095681933507e+006 1.095565192616e+006 1.095611012552e+006 1.019158876258e+006 1.017577981750e+006 1.096215801839e+006 1.095540929820e+006 1.095603939830e+006 1.096005487455e+006 1.095539917228e+006 1.095749711153e+006 1.093263863808e+006 1.093229155663e+006 1.093258341722e+006 1.093225267414e+006 1.095687514022e+006 1.095673512905e+006 1.095452848256e+006 1.095540023692e+006 1.092830946763e+006 1.092928525816e+006 1.092790870142e+006 1.092926410486e+006 1.095802388660e+006 1.095404484199e+006 1.095929900367e+006 1.095661223638e+006 1.095946996849e+006 1.095644835385e+006 1.096337361687e+006 1.096350568214e+006 1.095568382868e+006 1.095479678336e+006 1.096552583895e+006 1.095616182171e+006 1.095277603753e+006 1.095737363994e+006 1.015988398849e+006 1.013496848893e+006 1.096013841960e+006 1.096570887690e+006 1.096210220108e+006 1.096301981928e+006 1.095996430712e+006 1.095963621721e+006 1.095514345155e+006 1.077734171515e+006 1.077719862914e+006 1.095601100972e+006 1.096067561946e+006 1.094986273633e+006 1.095433140356e+006 1.095321201098e+006 1.095807605442e+006 1.096353636915e+006 1.096142276795e+006 1.095120673907e+006 1.005581440684e+006 1.004714899391e+006 1.095596941268e+006 1.096206488658e+006 1.096185620512e+006 1.095351784708e+006 1.096145223301e+006 1.096035027005e+006 1.096228868852e+006 1.095558179303e+006 1.093386123094e+006 1.093326368820e+006 1.093210264294e+006 1.093937453569e+006 1.093735936121e+006 1.093308269059e+006 1.093961645377e+006 1.093687864693e+006 1.093877166846e+006 1.094009258101e+006 1.093782877270e+006 1.094005006092e+006 1.093944769171e+006 1.094173690119e+006 1.094141791678e+006 1.094246840662e+006 1.094157840964e+006 1.094282630860e+006 1.094317482781e+006 1.094546744390e+006 1.094531257741e+006 1.094542719151e+006 1.094529472143e+006 1.094582274965e+006 1.094642287387e+006 1.094476877838e+006 1.094643526074e+006 1.094476339474e+006 1.095049758796e+006 1.094917565088e+006 1.094950064991e+006 1.094919661643e+006 1.094949790245e+006 1.093444249946e+006 1.093401973183e+006 1.093682080973e+006 1.093747647135e+006 1.093400498127e+006 1.093443645591e+006 1.093670174229e+006 1.093724076184e+006 1.094085708284e+006 1.094280914536e+006 1.094098337936e+006 1.094298902708e+006 1.094173365546e+006 1.094297284133e+006 1.094170794913e+006 1.094299699780e+006 1.094585580537e+006 1.094649036038e+006 1.094586624122e+006 1.094642936278e+006 1.094276864349e+006 1.094257805798e+006 1.094285663535e+006 1.094648667227e+006 1.094097881836e+006 1.094434460259e+006 1.094256834619e+006 1.094275216767e+006 1.094280642088e+006 1.094646134087e+006 1.094098289512e+006 1.094434796066e+006 1.094486708340e+006 1.094609128430e+006 1.094618116163e+006 1.094480279372e+006 1.094597438537e+006 1.094614916402e+006 1.095042836337e+006 1.094950664305e+006 1.094938738687e+006 1.095031981729e+006 1.094946572714e+006 1.094935794938e+006 1.094725955267e+006 1.095051980152e+006 1.094696860564e+006 1.094736921135e+006 1.095114685961e+006 1.094737147003e+006 1.095305206754e+006 1.094954571537e+006 1.095300164054e+006 1.094995299512e+006 1.094612110249e+006 1.094989973426e+006 1.094617696434e+006 1.094975525679e+006 1.093504191002e+006 1.093324242801e+006 1.093445659151e+006 1.093504163365e+006 1.093324636793e+006 1.093446156102e+006 1.093760767637e+006 1.093861590006e+006 1.093757427287e+006 1.093862771827e+006 1.094345852811e+006 1.094350330454e+006 1.094533370535e+006 1.094528642777e+006 1.094418738022e+006 1.094398500031e+006 1.095406361853e+006 1.095850083841e+006 1.095415021058e+006 1.095834682375e+006 1.094982976494e+006 1.094964611632e+006 1.095098751208e+006 1.095113101277e+006 1.094882156059e+006 1.095252734634e+006 1.094891979220e+006 1.095228680200e+006 1.094868599207e+006 1.094952779515e+006 1.094762348383e+006 1.094939154813e+006 1.094743432787e+006 1.094823339662e+006 1.095858276300e+006 1.094914992755e+006 1.095344834891e+006 1.095890295998e+006 1.095617639737e+006 1.095621685771e+006 1.095235111064e+006 1.095270675906e+006 1.095273540182e+006 1.095246245263e+006 1.095243000843e+006 1.095048842742e+006 1.095227662266e+006 1.094920429925e+006 1.095200399902e+006 1.095130202592e+006 1.095042870184e+006 1.095151419465e+006 1.095122771047e+006 1.095054052592e+006 1.095655658559e+006 1.096120054334e+006 1.095507123246e+006 1.095591602949e+006 1.095804160232e+006 1.095800536763e+006 1.095571939943e+006 1.000000000000e+006 1.000000000000e+006 1.004714665232e+006 1.095935271260e+006 1.096274558644e+006 1.095800533217e+006 1.096152744871e+006 1.096078027262e+006 1.095745736153e+006 1.096184928020e+006 1.095873739616e+006 1.096166100101e+006 1.095618122913e+006 1.095238735417e+006 1.095216507760e+006 1.095746472864e+006 1.095777841993e+006 1.095327810165e+006 1.095609639399e+006 1.096188417483e+006 1.095460039927e+006 1.095240095762e+006 1.095443919623e+006 1.095787825767e+006 1.095327066343e+006 1.095994983044e+006 1.076958157392e+006 1.076960882139e+006 1.096398160968e+006 1.092512374215e+006 1.092513009637e+006 1.095219289726e+006 1.095756664589e+006 1.096107570395e+006 1.095094308342e+006 1.095694759148e+006 1.095506791619e+006 1.096007493794e+006 1.095245613432e+006 1.095057211805e+006 1.095234436098e+006 1.095565578436e+006 1.030433670238e+006 1.028486054140e+006 1.096063360997e+006 1.095660554555e+006 1.030442337651e+006 1.096173316324e+006 1.095784661885e+006 1.096180438998e+006 1.095381220097e+006 1.095778848251e+006 1.009210487073e+006 1.096364254921e+006 1.096287672702e+006 1.095598454376e+006 1.095279338579e+006 1.096300787943e+006 1.093260619042e+006 1.093259101021e+006 1.096369753013e+006 1.095925847664e+006 1.095682011234e+006 1.095959068157e+006 1.096238383007e+006 1.096044819662e+006 1.095716517083e+006 1.095938348012e+006 1.095963536915e+006 1.095844792190e+006 1.095635477241e+006 1.095668904170e+006 1.096193941839e+006 1.096016748578e+006 1.096215213057e+006 1.095943285333e+006 1.095669288368e+006 1.095679639916e+006 1.095198471065e+006 1.033869030014e+006 1.095570023391e+006 1.015542334416e+006 1.095155677084e+006 1.095512526435e+006 1.095422518066e+006 1.095767884282e+006 1.095524320100e+006 1.096217058413e+006 1.095248317424e+006 1.096097123323e+006 1.096219425685e+006 1.096181563145e+006 1.096224093860e+006 1.096221181587e+006 1.096147612164e+006 1.032223049830e+006 1.037252035404e+006 1.025626906030e+006 1.040181074278e+006 1.096043632607e+006 1.037582561102e+006 1.023024119271e+006 1.095596687424e+006 1.096019368768e+006 1.096153155795e+006 1.096149900628e+006 1.037536083851e+006 1.095808506583e+006 1.095799253200e+006 1.092654932042e+006 1.092655157620e+006 1.093684665531e+006 1.093682898578e+006 1.096211680523e+006 1.096027267368e+006 1.093737954529e+006 1.093735803727e+006 1.093594863343e+006 1.093613631334e+006 1.096013510750e+006 1.096124702147e+006 
        </DataArray>
        <DataArray type="Float64" Name="MEAN_PRESSURE" format="ascii">