<?xml version="1.0"?>
<VTKFile type="UnstructuredGrid" version="0.1" byte_order="LittleEndian">
  <UnstructuredGrid>
    <Piece NumberOfPoints="963" NumberOfCells="1758">
      <Points>
        <DataArray type="Float64" NumberOfComponents="3" format="ascii">
          1.600262034769e+002 1.257989505921e+001 0.000000000000e+000
          1.635346199106e+002 2.000000000000e+001 0.000000000000e+000
          1.554515002484e+002 2.000000000000e+001 0.000000000000e+000
          3.459306441575e+000 1.667621982453e+001 0.000000000000e+000
          3.062266634850e+000 1.705413688405e+001 0.000000000000e+000
          2.873380769063e+000 1.650527725632e+001 0.000000000000e+000
          1.514088444034e+000 1.865189448105e+001 0.000000000000e+000
          1.967902677551e+000 1.834103489750e+001 0.000000000000e+000
          2.034564522234e+000 1.890806711991e+001 0.000000000000e+000
          2.478275273162e+000 1.702762299110e+001 0.000000000000e+000
          2.952621433467e+000 1.774357373580e+001 0.000000000000e+000
          2.237893542067e+000 1.782457469610e+001 0.000000000000e+000
          3.313583922780e+000 3.274674552047e+000 0.000000000000e+000
          2.561432712787e+000 3.156040447793e+000 0.000000000000e+000
          3.047531989640e+000 2.714594415171e+000 0.000000000000e+000
          2.750804692284e+000 3.936058190693e+000 0.000000000000e+000
          2.599039179818e+000 2.451529939148e+000 0.000000000000e+000
          3.139686649742e+000 2.186924052088e+000 0.000000000000e+000
          1.919984553221e+000 3.358010194268e+000 0.000000000000e+000
          1.960900304591e+000 2.773319745251e+000 0.000000000000e+000
          1.894565400391e+000 1.733316857565e+001 0.000000000000e+000
          0.000000000000e+000 1.538461538461e+001 0.000000000000e+000
          5.816229249735e-001 1.567919247147e+001 0.000000000000e+000
          0.000000000000e+000 1.589743589743e+001 0.000000000000e+000
          9.766405669483e+001 2.000000000000e+001 0.000000000000e+000
          1.010672711393e+002 1.500000000000e+001 0.000000000000e+000
          1.029329279907e+002 2.000000000000e+001 0.000000000000e+000
          9.588503785413e+001 1.500000000000e+001 0.000000000000e+000
          1.039231647117e+002 1.000000000000e+001 0.000000000000e+000
          9.860830811271e+001 1.000000000000e+001 0.000000000000e+000
          1.010672711397e+002 5.000000000000e+000 0.000000000000e+000
          9.766405669557e+001 0.000000000000e+000 0.000000000000e+000
          1.029329279915e+002 0.000000000000e+000 0.000000000000e+000
          9.588503785449e+001 5.000000000000e+000 0.000000000000e+000
          7.892434178002e+001 2.000000000000e+001 0.000000000000e+000
          8.173808356948e+001 1.500000000000e+001 0.000000000000e+000
          8.328058896910e+001 2.000000000000e+001 0.000000000000e+000
          7.679274808893e+001 1.514423393202e+001 0.000000000000e+000
          7.970503892166e+001 1.000000000000e+001 0.000000000000e+000
          8.409930620613e+001 1.000000000000e+001 0.000000000000e+000
          8.173808356980e+001 5.000000000000e+000 0.000000000000e+000
          7.892434178065e+001 0.000000000000e+000 0.000000000000e+000
          8.328058896976e+001 0.000000000000e+000 0.000000000000e+000
          7.679274808925e+001 4.855766067979e+000 0.000000000000e+000
          1.084583939765e+002 2.000000000000e+001 0.000000000000e+000
          1.122011528880e+002 1.500000000000e+001 0.000000000000e+000
          1.142529496098e+002 2.000000000000e+001 0.000000000000e+000
          1.065018792644e+002 1.500000000000e+001 0.000000000000e+000
          1.153419838410e+002 1.000000000000e+001 0.000000000000e+000
          1.094968549120e+002 1.000000000000e+001 0.000000000000e+000
          1.122011528884e+002 5.000000000000e+000 0.000000000000e+000
          1.084583939773e+002 0.000000000000e+000 0.000000000000e+000
          1.142529496106e+002 0.000000000000e+000 0.000000000000e+000
          1.065018792648e+002 5.000000000000e+000 0.000000000000e+000
          1.181779812237e+002 1.500000000000e+001 0.000000000000e+000
          1.203297004775e+002 2.000000000000e+001 0.000000000000e+000
          1.214717707847e+002 1.000000000000e+001 0.000000000000e+000
          1.181779812242e+002 5.000000000000e+000 0.000000000000e+000
          1.203297004784e+002 0.000000000000e+000 0.000000000000e+000
          7.477039199538e+001 2.000000000000e+001 0.000000000000e+000
          7.551483469771e+001 1.000000000000e+001 0.000000000000e+000
          7.296959467356e+001 1.385646386579e+001 0.000000000000e+000
          7.477039199599e+001 0.000000000000e+000 0.000000000000e+000
          7.296959467379e+001 6.143536134207e+000 0.000000000000e+000
          6.918477198508e+001 1.366665532880e+001 0.000000000000e+000
          6.746477463053e+001 1.000000000000e+001 0.000000000000e+000
          7.151921701478e+001 1.000000000000e+001 0.000000000000e+000
          6.918477198529e+001 6.333344671202e+000 0.000000000000e+000
          9.263986346551e+001 2.000000000000e+001 0.000000000000e+000
          9.094345943471e+001 1.500000000000e+001 0.000000000000e+000
          9.354026529380e+001 1.000000000000e+001 0.000000000000e+000
          9.263986346623e+001 0.000000000000e+000 0.000000000000e+000
          9.094345943506e+001 5.000000000000e+000 0.000000000000e+000
          1.244344522558e+002 1.503312574389e+001 0.000000000000e+000
          1.267023895482e+002 2.000000000000e+001 0.000000000000e+000
          1.285510028831e+002 1.020485663255e+001 0.000000000000e+000
          1.244344522563e+002 5.033125743893e+000 0.000000000000e+000
          1.267023895491e+002 0.000000000000e+000 0.000000000000e+000
          8.623136018348e+001 1.500000000000e+001 0.000000000000e+000
          8.784898578901e+001 2.000000000000e+001 0.000000000000e+000
          8.870757443665e+001 1.000000000000e+001 0.000000000000e+000
          8.623136018382e+001 5.000000000000e+000 0.000000000000e+000
          8.784898578969e+001 0.000000000000e+000 0.000000000000e+000
          4.872472752737e+000 0.000000000000e+000 0.000000000000e+000
          4.204479229380e+000 6.412840757122e-001 0.000000000000e+000
          4.157376851380e+000 0.000000000000e+000 0.000000000000e+000
          5.192892237051e+000 7.280355562789e-001 0.000000000000e+000
          1.306630304579e+000 6.212843344151e-001 0.000000000000e+000
          1.050228457081e+000 0.000000000000e+000 0.000000000000e+000
          1.614006202528e+000 0.000000000000e+000 0.000000000000e+000
          1.266763055794e+001 1.554696422866e+001 0.000000000000e+000
          1.263589100638e+001 1.657720348306e+001 0.000000000000e+000
          1.174268578662e+001 1.633018318031e+001 0.000000000000e+000
          6.588835695415e+000 7.505681085529e+000 0.000000000000e+000
          6.456871838389e+000 6.658671683861e+000 0.000000000000e+000
          7.208099140752e+000 7.038822846307e+000 0.000000000000e+000
          4.412623338166e+000 9.138856431549e+000 0.000000000000e+000
          4.024185797397e+000 8.708923235630e+000 0.000000000000e+000
          4.601447447338e+000 8.507292699647e+000 0.000000000000e+000
          5.325995059827e-001 6.308307298123e+000 0.000000000000e+000
          0.000000000000e+000 6.666666666655e+000 0.000000000000e+000
          0.000000000000e+000 6.153846153835e+000 0.000000000000e+000
          3.986461521768e+000 8.146114708182e+000 0.000000000000e+000
          2.411603373059e+000 6.510912162016e+000 0.000000000000e+000
          1.807525763324e+000 6.938080373464e+000 0.000000000000e+000
          1.686779352680e+000 6.178928843543e+000 0.000000000000e+000
          2.510760620997e+000 7.229076682239e+000 0.000000000000e+000
          3.166991983438e+000 6.906135870389e+000 0.000000000000e+000
          3.452788915829e+000 6.276851216781e+000 0.000000000000e+000
          3.340122000742e+000 5.656365440432e+000 0.000000000000e+000
          4.047936562877e+000 5.873561587395e+000 0.000000000000e+000
          1.802463974828e+000 1.292744708026e+001 0.000000000000e+000
          1.383967161336e+000 1.330299552906e+001 0.000000000000e+000
          1.329690820161e+000 1.266495373033e+001 0.000000000000e+000
          2.267922292389e+000 1.431116835808e+001 0.000000000000e+000
          2.854613987538e+000 1.466581611369e+001 0.000000000000e+000
          2.339869278674e+000 1.493776402241e+001 0.000000000000e+000
          4.690956878046e+000 3.115726773737e+000 0.000000000000e+000
          4.014773718330e+000 2.850429494150e+000 0.000000000000e+000
          4.643493383296e+000 2.293565471327e+000 0.000000000000e+000
          5.186083944243e+000 1.661927139510e+000 0.000000000000e+000
          5.452965511439e+000 2.679881546544e+000 0.000000000000e+000
          5.360460104304e+000 3.539902157655e+000 0.000000000000e+000
          6.197986304192e+000 3.115706366113e+000 0.000000000000e+000
          7.929356606585e-001 1.634705420870e+001 0.000000000000e+000
          1.222819867503e+000 1.599517159419e+001 0.000000000000e+000
          1.215723647926e+000 1.546209040954e+001 0.000000000000e+000
          1.770601276021e+000 1.521217632514e+001 0.000000000000e+000
          1.242830150061e+000 1.493919370237e+001 0.000000000000e+000
          1.166444124506e+000 4.610115997312e+000 0.000000000000e+000
          1.851620547934e+000 4.486892013458e+000 0.000000000000e+000
          1.494152702314e+000 5.145235789232e+000 0.000000000000e+000
          1.353088107040e+000 4.090803091641e+000 0.000000000000e+000
          3.802567455935e+000 5.084697985980e+000 0.000000000000e+000
          1.014840185783e+000 5.494768572296e+000 0.000000000000e+000
          8.831064584820e-001 5.109311190608e+000 0.000000000000e+000
          1.727903958959e+000 1.618384478933e+001 0.000000000000e+000
          1.343261525342e+000 1.651800241408e+001 0.000000000000e+000
          3.308120627291e+000 8.593311644828e+000 0.000000000000e+000
[...]
      <PointData Scalars="LIQUID_PRESSURE">
        <DataArray type="Float64" Name="LIQUID_PRESSURE" format="ascii">
          1.017337728566e+006 1.015815941609e+006 1.019322127787e+006 1.083934423175e+006 1.083933380710e+006 1.083941174662e+006 1.083946809627e+006 1.084030371956e+006 1.084034228461e+006 1.084000540126e+006 1.083932769216e+006 1.084023793030e+006 1.083880052035e+006 1.083948017492e+006 1.083892245685e+006 1.083912107684e+006 1.083948589758e+006 1.083892621459e+006 1.084001289630e+006 1.084011114889e+006 1.084021499303e+006 1.083736870084e+006 1.083730805973e+006 1.083731563101e+006 1.044401548227e+006 1.042923555687e+006 1.042113390829e+006 1.045174231102e+006 1.041683397107e+006 1.043991444629e+006 1.042923554269e+006 1.044401543696e+006 1.042113389227e+006 1.045174229156e+006 1.052543651887e+006 1.051320691561e+006 1.050650330586e+006 1.053470229512e+006 1.052204313851e+006 1.050294542868e+006 1.051320690965e+006 1.052543650282e+006 1.050650331773e+006 1.053470227768e+006 1.039714232561e+006 1.038089356328e+006 1.037198668092e+006 1.040563703433e+006 1.036725929879e+006 1.039263377828e+006 1.038089353569e+006 1.039714231572e+006 1.037198661705e+006 1.040563701927e+006 1.035494932994e+006 1.034561012641e+006 1.034065321969e+006 1.035494926256e+006 1.034561002995e+006 1.054349426347e+006 1.054025778954e+006 1.055132370665e+006 1.054349422892e+006 1.055132366782e+006 1.056778181782e+006 1.057526222942e+006 1.055763017326e+006 1.056778168660e+006 1.046583844424e+006 1.047320790116e+006 1.046192719744e+006 1.046583850110e+006 1.047320795896e+006 1.032779532526e+006 1.031795303006e+006 1.030993077339e+006 1.032779516866e+006 1.031795305721e+006 1.049368079242e+006 1.048665210184e+006 1.048292178193e+006 1.049368081789e+006 1.048665220193e+006 1.083783247035e+006 1.083927632744e+006 1.083921319532e+006 1.083710871220e+006 1.083893027272e+006 1.083822359288e+006 1.083979332219e+006 1.081670427594e+006 1.081680963834e+006 1.082010122047e+006 1.083535865615e+006 1.083567730314e+006 1.083332042811e+006 1.083887628375e+006 1.083930121699e+006 1.083843405581e+006 1.083692003559e+006 1.083688959582e+006 1.083684771113e+006 1.083927577939e+006 1.083964468859e+006 1.083973959101e+006 1.083954894072e+006 1.083953552325e+006 1.083895690190e+006 1.083899188967e+006 1.083882996925e+006 1.083912526402e+006 1.084008079789e+006 1.083919170145e+006 1.083902716499e+006 1.084018131732e+006 1.083942519401e+006 1.084008676140e+006 1.083800698271e+006 1.083906795774e+006 1.083818065534e+006 1.083707562939e+006 1.083671072167e+006 1.083679712486e+006 1.083617290524e+006 1.083754123095e+006 1.083848803413e+006 1.083851786979e+006 1.083999588961e+006 1.083864144897e+006 1.083820818570e+006 1.083988981997e+006 1.083913715271e+006 1.083874885459e+006 1.083905386582e+006 1.083775732480e+006 1.083748187620e+006 1.083984129183e+006 1.083884332447e+006 1.083908071613e+006 1.083942953677e+006 1.083901083076e+006 1.083771480424e+006 1.083768198938e+006 1.083886701556e+006 1.083774767125e+006 1.083772483743e+006 1.083897161475e+006 1.083933531645e+006 1.083777458898e+006 1.083902393827e+006 1.083936794254e+006 1.083729713159e+006 1.083730159488e+006 1.083876702038e+006 1.083987148787e+006 1.083994095255e+006 1.083913622964e+006 1.083783496684e+006 1.083714475102e+006 1.083643227833e+006 1.083604326226e+006 1.083915567851e+006 1.083910559177e+006 1.083776986985e+006 1.083761407123e+006 1.083988883060e+006 1.083719367078e+006 1.083718737118e+006 1.083716243897e+006 1.083972058482e+006 1.083952140897e+006 1.083933626228e+006 1.083914464649e+006 1.083807214401e+006 1.083952039344e+006 1.083912557322e+006 1.083936589688e+006 1.083711018420e+006 1.083702362855e+006 1.083796898212e+006 1.083988378300e+006 1.084007758916e+006 1.083888814904e+006 1.083960716765e+006 1.083746904112e+006 1.083733836668e+006 1.083903707980e+006 1.083898673032e+006 1.084000053844e+006 1.083984666497e+006 1.083616045948e+006 1.083447665174e+006 1.084018720681e+006 1.083982684895e+006 1.083766341290e+006 1.084011422090e+006 1.083935950233e+006 1.083963841085e+006 1.083935126193e+006 1.083938203918e+006 1.083930985403e+006 1.084025199146e+006 1.083984109388e+006 1.083858303534e+006 1.083787829744e+006 1.083855884191e+006 1.083962132882e+006 1.083927745314e+006 1.083881251523e+006 1.083910210453e+006 1.083804356897e+006 1.083949055010e+006 1.084006488578e+006 1.058441105796e+006 1.058441125751e+006 1.083927616864e+006 1.084005296686e+006 1.083767676352e+006 1.083119890158e+006 1.083229522798e+006 1.083006448734e+006 1.083955944058e+006 1.083898551959e+006 1.083788763343e+006 1.083923534716e+006 1.083770128475e+006 1.084014011442e+006 1.083993551614e+006 1.083802579608e+006 1.083988403895e+006 1.083805143984e+006 1.083826632185e+006 1.083957413214e+006 1.083892784371e+006 1.083719310464e+006 1.083923387587e+006 1.084012104948e+006 1.084002142222e+006 1.083920695406e+006 1.084032921055e+006 1.083970594114e+006 1.083715254570e+006 1.083704892591e+006 1.083707580675e+006 1.083712214649e+006 1.083713319768e+006 1.083709060291e+006 1.083691805280e+006 1.083688401002e+006 1.083718332730e+006 1.083803633419e+006 1.083735385124e+006 1.083714463977e+006 1.083760486067e+006 1.083759832014e+006 1.083761748670e+006 1.083728063973e+006 1.083725611643e+006 1.083721007756e+006 1.083716938040e+006 1.083750186035e+006 1.083747267273e+006 1.083754244007e+006 1.060775292780e+006 1.059576496870e+006 1.059281056317e+006 1.061355941668e+006 1.059216946974e+006 1.060716401940e+006 1.059576517365e+006 1.060775311676e+006 1.059281073065e+006 1.061355957563e+006 1.059216975749e+006 1.060716420472e+006 1.063559678063e+006 1.062754239731e+006 1.062200434143e+006 1.064087873042e+006 1.062144265130e+006 1.063506104945e+006 1.062754244957e+006 1.063559675818e+006 1.062200443109e+006 1.064087866402e+006 1.062144273986e+006 1.063506105363e+006 1.071467868940e+006 1.070889690840e+006 1.070492151262e+006 1.071847013456e+006 1.070451809768e+006 1.071429385737e+006 1.070889537397e+006 1.071467650959e+006 1.070492018474e+006 1.071846776412e+006 1.070451711279e+006 1.071429233086e+006 1.069469103646e+006 1.068833477233e+006 1.068396433247e+006 1.069885928458e+006 1.068352094969e+006 1.069426811691e+006 1.068833430622e+006 1.069469041550e+006 1.068396403503e+006 1.069885837632e+006 1.068352056358e+006 1.069426750221e+006 1.074132410305e+006 1.073698125734e+006 1.073285962702e+006 1.074488062588e+006 1.073697606886e+006 1.074131774791e+006 1.073285503492e+006 1.074487367171e+006 1.067271735950e+006 1.066572959260e+006 1.066092491911e+006 1.067729978259e+006 1.066043756703e+006 1.067225251366e+006 1.066572925803e+006 1.067271691074e+006 1.066092456502e+006 1.067729939136e+006 1.066043737990e+006 1.067225223997e+006 1.064856063065e+006 1.065359829825e+006 1.064804966041e+006 1.064856046756e+006 1.065359810634e+006 1.064804956285e+006 1.072398444284e+006 1.072923634230e+006 1.072361730824e+006 1.072398119807e+006 1.072923269786e+006 1.072361509226e+006 1.073265107222e+006 1.073264796302e+006 1.064309974675e+006 1.065130846485e+006 1.063847791707e+006 1.065571656405e+006 1.064309971548e+006 1.065571648317e+006 1.070061170813e+006 1.070708925386e+006 1.069696420039e+006 1.071056811160e+006 1.070061123672e+006 1.071056738878e+006 1.062987113854e+006 1.062502523497e+006 1.062987116506e+006 1.073896505456e+006 1.074113465620e+006 1.074113917565e+006 1.073896774056e+006 1.066354559964e+006 1.066774984384e+006 1.066774971317e+006 1.069017230744e+006 1.068634794569e+006 1.069017200857e+006 1.067922652393e+006 1.067521672069e+006 1.067922633237e+006 1.072912177287e+006 1.072912341179e+006 1.071674578469e+006 1.072006382665e+006 1.072006277575e+006 1.061600111537e+006 1.061092029216e+006 1.061600119000e+006 1.072715731507e+006 1.059984819115e+006 1.059164535495e+006 1.059984846175e+006 1.057714339213e+006 1.057976441611e+006 1.057714336693e+006 1.057976436088e+006 1.083227902167e+006 1.083099165078e+006 1.083291940616e+006 1.083046741450e+006 1.083932622411e+006 1.083956815992e+006 1.084014408810e+006 1.083950238010e+006 1.084025106758e+006 1.083783448258e+006 1.083734068976e+006 1.083982548151e+006 1.083714889770e+006 1.083643754382e+006 1.020646822148e+006 1.022665768770e+006 1.019322109490e+006 1.083555248517e+006 1.083311278535e+006 1.083404559491e+006 1.083532686178e+006 1.083944698510e+006 1.083983371941e+006 1.083811359397e+006 1.083951164416e+006 1.083974428771e+006 1.084024554021e+006 1.084001934309e+006 1.083298415453e+006 1.083287991313e+006 1.083102321428e+006 1.084026338729e+006 1.083943376060e+006 1.083719165262e+006 1.083731722549e+006 1.083730784828e+006 1.083163702011e+006 1.083313223594e+006 1.083281845724e+006 1.083431980977e+006 1.083186566004e+006 1.083563311197e+006 1.083108236787e+006 1.082814460035e+006 1.082988942405e+006 1.083075330155e+006 1.083725643475e+006 1.083946559159e+006 1.083953983650e+006 1.083933917033e+006 1.083108640396e+006 1.082963875986e+006 1.082767711631e+006 1.082641549087e+006 1.083951188814e+006 1.083958209705e+006 1.082169658808e+006 1.082064766761e+006 1.082394291829e+006 1.083440330658e+006 1.083578162686e+006 1.081689796072e+006 1.082197293428e+006 1.081925352049e+006 1.083904484815e+006 1.083655332828e+006 1.083629490485e+006 1.081218154522e+006 1.081281070383e+006 1.083991293677e+006 1.083862543191e+006 1.083300849211e+006 1.083556746676e+006 1.083170585588e+006 1.083232590333e+006 1.083070538300e+006 1.083048469452e+006 1.083665107935e+006 1.082526351490e+006 1.082655733664e+006 1.082070377880e+006 1.081782978752e+006 1.081623860055e+006 1.082816786554e+006 1.081536010361e+006 1.081852287355e+006 1.081951929363e+006 1.081372817012e+006 1.083930222678e+006 1.083962830028e+006 1.082516654376e+006 1.082750224609e+006 1.083696128178e+006 1.083939380930e+006 1.083785811483e+006 1.083845246006e+006 1.083818809562e+006 1.083796143553e+006 1.083978602230e+006 1.084035064648e+006 1.083635827748e+006 1.083664626274e+006 1.083067214295e+006 1.082902430676e+006 1.082773644396e+006 1.083149466446e+006 1.082964376462e+006 1.082779667544e+006 1.083120737873e+006 1.083636882599e+006 1.083641612473e+006 1.083668723607e+006 1.083204774525e+006 1.083780392864e+006 1.083528158192e+006 1.083757811130e+006 1.083691230364e+006 1.082500592450e+006 1.082220936115e+006 1.082410930253e+006 1.083921648480e+006 1.083959942200e+006 1.083692962700e+006 1.082993995285e+006 1.083836663369e+006 1.082262331541e+006 1.082405893816e+006 1.083792270439e+006 1.083722930581e+006 1.083850443165e+006 1.083738090949e+006 1.083863386006e+006 1.083476099417e+006 1.083810756806e+006 1.083173726366e+006 1.083009986655e+006 1.084032056463e+006 1.083940751058e+006 1.083938341592e+006 1.083960461717e+006 1.083346157145e+006 1.083285746845e+006 1.083339475414e+006 1.083524023905e+006 1.083749969218e+006 1.083975648714e+006 1.084011503534e+006 1.082586768466e+006 1.082744064506e+006 1.082814222645e+006 1.082511589063e+006 1.083651453580e+006 1.082241641420e+006 1.081779456555e+006 1.081936592142e+006 1.083625703077e+006 1.083921581724e+006 1.084014203536e+006 1.083184752241e+006 1.082604714997e+006 1.082512980133e+006 1.082363863308e+006 1.082764875558e+006 1.082765562590e+006 1.084027916572e+006 1.084016641116e+006 1.083950259264e+006 1.082406821437e+006 1.082259496681e+006 1.083496656752e+006 1.083632032349e+006 1.083636968546e+006 1.082473977636e+006 1.082741221830e+006 1.082643279865e+006 1.084007545531e+006 1.083822495923e+006 1.083755915344e+006 1.083961470387e+006 1.083959442676e+006 1.082561649837e+006 1.082923264762e+006 1.083679734385e+006 1.083817413759e+006 1.083729577687e+006 1.082997198831e+006 1.082769527771e+006 1.082865682419e+006 1.083960615694e+006 1.083331888994e+006 1.083856645103e+006 1.082531417876e+006 1.083666922322e+006 1.084000358343e+006 1.083941596007e+006 1.083991497180e+006 1.083164337891e+006 1.082248544451e+006 1.083947078450e+006 1.083931783304e+006 1.083008717621e+006 1.081983655257e+006 1.082313522337e+006 1.083930715073e+006 1.083713216079e+006 1.083716448517e+006 1.082636909184e+006 1.082524620191e+006 1.082376514035e+006 1.012139154395e+006 1.010622471074e+006 1.008283342727e+006 1.083123336670e+006 1.083722153899e+006 1.083991684037e+006 1.083959992406e+006 1.083923306979e+006 1.083837867274e+006 1.083129698178e+006 1.083940343003e+006 1.083814021015e+006 1.083726605139e+006 1.056398094885e+006 1.056398098208e+006 1.083709907588e+006 1.083704158452e+006 1.083941714213e+006 1.083739995197e+006 1.082818835700e+006 1.083657530331e+006 1.082963748488e+006 1.083781481660e+006 1.083440012143e+006 1.083943270407e+006 1.082444741950e+006 1.082501212221e+006 1.083270175008e+006 1.017229608607e+006 1.015815897438e+006 1.083903275510e+006 1.083641424044e+006 1.083681059182e+006 1.083592663322e+006 1.083189066657e+006 1.083701057207e+006 1.074791469842e+006 1.074717047253e+006 1.074790966621e+006 1.074716737436e+006 1.083888706358e+006 1.083749938112e+006 1.083188241302e+006 1.083779306485e+006 1.074529282996e+006 1.074218453065e+006 1.073729794429e+006 1.074218585833e+006 1.082283981073e+006 1.082010940782e+006 1.083893765448e+006 1.082441355133e+006 1.083935439400e+006 1.083915200665e+006 1.083944039076e+006 1.083890057259e+006 1.083804932459e+006 1.083781893362e+006 1.084031477292e+006 1.083855497729e+006 1.081744962004e+006 1.082221209458e+006 1.014378793690e+006 1.012139141567e+006 1.083742529893e+006 1.084023626345e+006 1.083923234531e+006 1.083961929394e+006 1.083056820088e+006 1.083744738205e+006 1.083158276864e+006 1.056071700354e+006 1.056071698017e+006 1.081467532733e+006 1.083573086652e+006 1.080923065360e+006 1.080580724502e+006 1.080324980181e+006 1.082302908266e+006 1.083902103174e+006 1.083930490616e+006 1.081830440187e+006 1.005019434224e+006 1.004240049254e+006 1.081512598306e+006 1.083715799569e+006 1.083720692890e+006 1.081970782035e+006 1.083743050757e+006 1.083757015644e+006 1.083754613458e+006 1.082121411591e+006 1.075669843917e+006 1.075221156364e+006 1.075119234954e+006 1.076087345188e+006 1.075929281261e+006 1.075221336351e+006 1.076087545780e+006 1.075929661906e+006 1.076406022867e+006 1.076804194512e+006 1.076562432100e+006 1.076804421913e+006 1.076562861356e+006 1.077108462467e+006 1.077488215644e+006 1.077257450413e+006 1.077487945422e+006 1.077257016056e+006 1.077780576055e+006 1.078139456987e+006 1.077918046585e+006 1.078138906820e+006 1.077917691826e+006 1.078436990980e+006 1.078894134203e+006 1.078621954405e+006 1.078890998976e+006 1.078620885204e+006 1.079207670551e+006 1.079586914455e+006 1.079355022245e+006 1.079577972477e+006 1.079351020638e+006 1.075413326415e+006 1.075499421797e+006 1.076122537338e+006 1.076318798279e+006 1.075499910988e+006 1.075414013206e+006 1.076123371732e+006 1.076319448218e+006 1.076838434727e+006 1.077025640404e+006 1.076837416390e+006 1.077024882291e+006 1.077520393965e+006 1.077700327277e+006 1.077519187777e+006 1.077699439226e+006 1.078171105420e+006 1.078352933452e+006 1.078169669448e+006 1.078351600677e+006 1.077386839845e+006 1.077812056565e+006 1.077142403763e+006 1.078033526820e+006 1.076955527991e+006 1.077693774784e+006 1.077815071896e+006 1.077389088930e+006 1.077144515553e+006 1.078036660517e+006 1.076957191877e+006 1.077695902930e+006 1.078474431404e+006 1.078767198844e+006 1.078348825541e+006 1.078479122351e+006 1.078771574875e+006 1.078351104064e+006 1.079226053344e+006 1.079487292864e+006 1.079139122851e+006 1.079232838366e+006 1.079496646321e+006 1.079138759032e+006 1.079903253508e+006 1.080241861006e+006 1.079735233588e+006 1.079914364630e+006 1.080248862289e+006 1.079797410605e+006 1.080499360735e+006 1.080780061836e+006 1.080517703283e+006 1.080773318618e+006 1.078934684993e+006 1.079146273199e+006 1.078932661219e+006 1.079142098613e+006 1.075858850748e+006 1.074825961251e+006 1.075337377529e+006 1.075859810565e+006 1.074826638754e+006 1.075338329944e+006 1.076566195578e+006 1.076205091539e+006 1.076567401567e+006 1.076206377818e+006 1.077260427636e+006 1.077261944687e+006 1.077921563465e+006 1.077923525882e+006 1.078634624745e+006 1.078636910754e+006 1.082610097284e+006 1.082912022822e+006 1.082613896851e+006 1.083738214368e+006 1.079380249274e+006 1.079383277689e+006 1.081016202012e+006 1.081038309851e+006 1.079884529302e+006 1.080326624896e+006 1.080076676914e+006 1.080300158513e+006 1.080042579462e+006 1.079611972574e+006 1.079839133305e+006 1.079605615669e+006 1.079814714536e+006 1.079991774267e+006 1.082359500406e+006 1.080070757644e+006 1.082582757982e+006 1.082892917381e+006 1.081355552724e+006 1.081534365908e+006 1.080311736081e+006 1.080706551326e+006 1.080488243943e+006 1.080484046853e+006 1.080534854599e+006 1.080779437918e+006 1.080772179017e+006 1.080850216459e+006 1.080722631937e+006 1.081129876162e+006 1.080986168277e+006 1.081126077585e+006 1.080792626863e+006 1.081122737799e+006 1.081432629159e+006 1.083464227004e+006 1.082500781206e+006 1.081413394228e+006 1.083636604653e+006 1.083706380222e+006 1.081346589317e+006 1.000000000000e+006 1.000000000000e+006 1.004240055850e+006 1.083377641841e+006 1.083571472302e+006 1.083641037460e+006 1.083589697543e+006 1.083454496500e+006 1.083925234723e+006 1.083696239621e+006 1.083650113797e+006 1.083712575748e+006 1.083309390593e+006 1.081908067329e+006 1.081792390085e+006 1.083933427943e+006 1.083755516286e+006 1.081689053234e+006 1.081475353780e+006 1.083517827881e+006 1.081641063044e+006 1.081683464903e+006 1.082688634852e+006 1.082297485797e+006 1.080383159517e+006 1.083428418330e+006 1.055084297147e+006 1.055084300623e+006 1.083902728301e+006 1.073494616143e+006 1.073494507198e+006 1.081082735550e+006 1.083734655959e+006 1.083484959921e+006 1.081033399320e+006 1.083672007388e+006 1.083662170224e+006 1.083955781707e+006 1.080654338137e+006 1.080747868403e+006 1.080680527836e+006 1.083197489941e+006 1.025030552921e+006 1.023603403212e+006 1.082963909297e+006 1.082154229495e+006 1.025854417008e+006 1.083701521352e+006 1.083708425767e+006 1.083698809292e+006 1.081290709184e+006 1.083365496055e+006 1.008283373313e+006 1.083937204472e+006 1.083930620484e+006 1.083654556722e+006 1.081729072736e+006 1.083858786907e+006 1.074938821180e+006 1.074939686925e+006 1.083925933412e+006 1.083703187364e+006 1.082433331755e+006 1.083937798909e+006 1.083851174799e+006 1.083721497390e+006 1.083935830533e+006 1.083954609233e+006 1.083608268399e+006 1.083045458005e+006 1.083122030725e+006 1.083740099192e+006 1.083698090802e+006 1.083800840964e+006 1.083716792287e+006 1.082308701197e+006 1.082132963363e+006 1.083935889194e+006 1.081757180342e+006 1.027645703612e+006 1.081472628871e+006 1.013975599684e+006 1.081084077541e+006 1.083680105522e+006 1.081641172206e+006 1.083934551454e+006 1.081506312104e+006 1.083522242601e+006 1.080269317684e+006 1.083811978711e+006 1.083537471784e+006 1.083708159707e+006 1.083717271093e+006 1.083732178020e+006 1.083735734509e+006 1.025854404331e+006 1.028895290146e+006 1.022665755766e+006 1.030421715818e+006 1.083722176527e+006 1.028998955193e+006 1.020715114178e+006 1.083769965425e+006 1.083730993381e+006 1.083729291413e+006 1.083442927153e+006 1.028895299440e+006 1.083619822504e+006 1.083728669043e+006 1.073885372142e+006 1.073885868318e+006 1.075708443934e+006 1.075709608526e+006 1.083719669963e+006 1.083715304216e+006 1.076641764441e+006 1.076640129657e+006 1.076442381540e+006 1.076443923531e+006 1.083705025128e+006 1.083703644052e+006 
        </DataArray>
        <DataArray type="Float64" Name="MEAN_PRESSURE" format="ascii">