<?xml version="1.0"?>
<VTKFile type="UnstructuredGrid" version="0.1" byte_order="LittleEndian">
  <UnstructuredGrid>
    <Piece NumberOfPoints="963" NumberOfCells="1758">
      <Points>
        <DataArray type="Float64" NumberOfComponents="3" format="ascii">
          1.600262034769e+002 1.257989505921e+001 0.000000000000e+000
          1.635346199106e+002 2.000000000000e+001 0.000000000000e+000
          1.554515002484e+002 2.000000000000e+001 0.000000000000e+000
          3.459306441575e+000 1.667621982453e+001 0.000000000000e+000
          3.062266634850e+000 1.705413688405e+001 0.000000000000e+000
          2.873380769063e+000 1.650527725632e+001 0.000000000000e+000
          1.514088444034e+000 1.865189448105e+001 0.000000000000e+000
          1.967902677551e+000 1.834103489750e+001 0.000000000000e+000
          2.034564522234e+000 1.890806711991e+001 0.000000000000e+000
          2.478275273162e+000 1.702762299110e+001 0.000000000000e+000
          2.952621433467e+000 1.774357373580e+001 0.000000000000e+000
          2.237893542067e+000 1.782457469610e+001 0.000000000000e+000
          3.313583922780e+000 3.274674552047e+000 0.000000000000e+000
          2.561432712787e+000 3.156040447793e+000 0.000000000000e+000
          3.047531989640e+000 2.714594415171e+000 0.000000000000e+000
          2.750804692284e+000 3.936058190693e+000 0.000000000000e+000
          2.599039179818e+000 2.451529939148e+000 0.000000000000e+000
          3.139686649742e+000 2.186924052088e+000 0.000000000000e+000
          1.919984553221e+000 3.358010194268e+000 0.000000000000e+000
          1.960900304591e+000 2.773319745251e+000 0.000000000000e+000
          1.894565400391e+000 1.733316857565e+001 0.000000000000e+000
          0.000000000000e+000 1.538461538461e+001 0.000000000000e+000
          5.816229249735e-001 1.567919247147e+001 0.000000000000e+000
          0.000000000000e+000 1.589743589743e+001 0.000000000000e+000
          9.766405669483e+001 2.000000000000e+001 0.000000000000e+000
          1.010672711393e+002 1.500000000000e+001 0.000000000000e+000
          1.029329279907e+002 2.000000000000e+001 0.000000000000e+000
          9.588503785413e+001 1.500000000000e+001 0.000000000000e+000
          1.039231647117e+002 1.000000000000e+001 0.000000000000e+000
          9.860830811271e+001 1.000000000000e+001 0.000000000000e+000
          1.010672711397e+002 5.000000000000e+000 0.000000000000e+000
          9.766405669557e+001 0.000000000000e+000 0.000000000000e+000
          1.029329279915e+002 0.000000000000e+000 0.000000000000e+000
          9.588503785449e+001 5.000000000000e+000 0.000000000000e+000
          7.892434178002e+001 2.000000000000e+001 0.000000000000e+000
          8.173808356948e+001 1.500000000000e+001 0.000000000000e+000
          8.328058896910e+001 2.000000000000e+001 0.000000000000e+000
          7.679274808893e+001 1.514423393202e+001 0.000000000000e+000
          7.970503892166e+001 1.000000000000e+001 0.000000000000e+000
          8.409930620613e+001 1.000000000000e+001 0.000000000000e+000
          8.173808356980e+001 5.000000000000e+000 0.000000000000e+000
          7.892434178065e+001 0.000000000000e+000 0.000000000000e+000
          8.328058896976e+001 0.000000000000e+000 0.000000000000e+000
          7.679274808925e+001 4.855766067979e+000 0.000000000000e+000
          1.084583939765e+002 2.000000000000e+001 0.000000000000e+000
          1.122011528880e+002 1.500000000000e+001 0.000000000000e+000
          1.142529496098e+002 2.000000000000e+001 0.000000000000e+000
          1.065018792644e+002 1.500000000000e+001 0.000000000000e+000
          1.153419838410e+002 1.000000000000e+001 0.000000000000e+000
          1.094968549120e+002 1.000000000000e+001 0.000000000000e+000
          1.122011528884e+002 5.000000000000e+000 0.000000000000e+000
          1.084583939773e+002 0.000000000000e+000 0.000000000000e+000
          1.142529496106e+002 0.000000000000e+000 0.000000000000e+000
          1.065018792648e+002 5.000000000000e+000 0.000000000000e+000
          1.181779812237e+002 1.500000000000e+001 0.000000000000e+000
          1.203297004775e+002 2.000000000000e+001 0.000000000000e+000
          1.214717707847e+002 1.000000000000e+001 0.000000000000e+000
          1.181779812242e+002 5.000000000000e+000 0.000000000000e+000
          1.203297004784e+002 0.000000000000e+000 0.000000000000e+000
          7.477039199538e+001 2.000000000000e+001 0.000000000000e+000
          7.551483469771e+001 1.000000000000e+001 0.000000000000e+000
          7.296959467356e+001 1.385646386579e+001 0.000000000000e+000
          7.477039199599e+001 0.000000000000e+000 0.000000000000e+000
          7.296959467379e+001 6.143536134207e+000 0.000000000000e+000
          6.918477198508e+001 1.366665532880e+001 0.000000000000e+000
          6.746477463053e+001 1.000000000000e+001 0.000000000000e+000
          7.151921701478e+001 1.000000000000e+001 0.000000000000e+000
          6.918477198529e+001 6.333344671202e+000 0.000000000000e+000
          9.263986346551e+001 2.000000000000e+001 0.000000000000e+000
          9.094345943471e+001 1.500000000000e+001 0.000000000000e+000
          9.354026529380e+001 1.000000000000e+001 0.000000000000e+000
          9.263986346623e+001 0.000000000000e+000 0.000000000000e+000
          9.094345943506e+001 5.000000000000e+000 0.000000000000e+000
          1.244344522558e+002 1.503312574389e+001 0.000000000000e+000
          1.267023895482e+002 2.000000000000e+001 0.000000000000e+000
          1.285510028831e+002 1.020485663255e+001 0.000000000000e+000
          1.244344522563e+002 5.033125743893e+000 0.000000000000e+000
          1.267023895491e+002 0.000000000000e+000 0.000000000000e+000
          8.623136018348e+001 1.500000000000e+001 0.000000000000e+000
          8.784898578901e+001 2.000000000000e+001 0.000000000000e+000
          8.870757443665e+001 1.000000000000e+001 0.000000000000e+000
          8.623136018382e+001 5.000000000000e+000 0.000000000000e+000
          8.784898578969e+001 0.000000000000e+000 0.000000000000e+000
          4.872472752737e+000 0.000000000000e+000 0.000000000000e+000
          4.204479229380e+000 6.412840757122e-001 0.000000000000e+000
          4.157376851380e+000 0.000000000000e+000 0.000000000000e+000
          5.192892237051e+000 7.280355562789e-001 0.000000000000e+000
          1.306630304579e+000 6.212843344151e-001 0.000000000000e+000
          1.050228457081e+000 0.000000000000e+000 0.000000000000e+000
          1.614006202528e+000 0.000000000000e+000 0.000000000000e+000
          1.266763055794e+001 1.554696422866e+001 0.000000000000e+000
          1.263589100638e+001 1.657720348306e+001 0.000000000000e+000
          1.174268578662e+001 1.633018318031e+001 0.000000000000e+000
          6.588835695415e+000 7.505681085529e+000 0.000000000000e+000
          6.456871838389e+000 6.658671683861e+000 0.000000000000e+000
          7.208099140752e+000 7.038822846307e+000 0.000000000000e+000
          4.412623338166e+000 9.138856431549e+000 0.000000000000e+000
          4.024185797397e+000 8.708923235630e+000 0.000000000000e+000
          4.601447447338e+000 8.507292699647e+000 0.000000000000e+000
          5.325995059827e-001 6.308307298123e+000 0.000000000000e+000
          0.000000000000e+000 6.666666666655e+000 0.000000000000e+000
          0.000000000000e+000 6.153846153835e+000 0.000000000000e+000
          3.986461521768e+000 8.146114708182e+000 0.000000000000e+000
          2.411603373059e+000 6.510912162016e+000 0.000000000000e+000
          1.807525763324e+000 6.938080373464e+000 0.000000000000e+000
          1.686779352680e+000 6.178928843543e+000 0.000000000000e+000
          2.510760620997e+000 7.229076682239e+000 0.000000000000e+000
          3.166991983438e+000 6.906135870389e+000 0.000000000000e+000
          3.452788915829e+000 6.276851216781e+000 0.000000000000e+000
          3.340122000742e+000 5.656365440432e+000 0.000000000000e+000
          4.047936562877e+000 5.873561587395e+000 0.000000000000e+000
          1.802463974828e+000 1.292744708026e+001 0.000000000000e+000
          1.383967161336e+000 1.330299552906e+001 0.000000000000e+000
          1.329690820161e+000 1.266495373033e+001 0.000000000000e+000
          2.267922292389e+000 1.431116835808e+001 0.000000000000e+000
          2.854613987538e+000 1.466581611369e+001 0.000000000000e+000
          2.339869278674e+000 1.493776402241e+001 0.000000000000e+000
          4.690956878046e+000 3.115726773737e+000 0.000000000000e+000
          4.014773718330e+000 2.850429494150e+000 0.000000000000e+000
          4.643493383296e+000 2.293565471327e+000 0.000000000000e+000
          5.186083944243e+000 1.661927139510e+000 0.000000000000e+000
          5.452965511439e+000 2.679881546544e+000 0.000000000000e+000
          5.360460104304e+000 3.539902157655e+000 0.000000000000e+000
          6.197986304192e+000 3.115706366113e+000 0.000000000000e+000
          7.929356606585e-001 1.634705420870e+001 0.000000000000e+000
          1.222819867503e+000 1.599517159419e+001 0.000000000000e+000
          1.215723647926e+000 1.546209040954e+001 0.000000000000e+000
          1.770601276021e+000 1.521217632514e+001 0.000000000000e+000
          1.242830150061e+000 1.493919370237e+001 0.000000000000e+000
          1.166444124506e+000 4.610115997312e+000 0.000000000000e+000
          1.851620547934e+000 4.486892013458e+000 0.000000000000e+000
          1.494152702314e+000 5.145235789232e+000 0.000000000000e+000
          1.353088107040e+000 4.090803091641e+000 0.000000000000e+000
          3.802567455935e+000 5.084697985980e+000 0.000000000000e+000
          1.014840185783e+000 5.494768572296e+000 0.000000000000e+000
          8.831064584820e-001 5.109311190608e+000 0.000000000000e+000
          1.727903958959e+000 1.618384478933e+001 0.000000000000e+000
          1.343261525342e+000 1.651800241408e+001 0.000000000000e+000
          3.308120627291e+000 8.593311644828e+000 0.000000000000e+000
[...]
      <PointData Scalars="LIQUID_PRESSURE">
        <DataArray type="Float64" Name="LIQUID_PRESSURE" format="ascii">
          1.000518561816e+006 1.001074061365e+006 1.000508869309e+006 1.006948575036e+006 1.007100749968e+006 1.007311725464e+006 1.007285181464e+006 1.007984734490e+006 1.008047088877e+006 1.007976358445e+006 1.007192794224e+006 1.008077573092e+006 1.006855105348e+006 1.007807257666e+006 1.007070442190e+006 1.007430146574e+006 1.007777960038e+006 1.006936117375e+006 1.007954061040e+006 1.008042100305e+006 1.007850668454e+006 1.007872519980e+006 1.007318462232e+006 1.007859020377e+006 1.004089177657e+006 1.003926681116e+006 1.003816223602e+006 1.004118904331e+006 1.003755948914e+006 1.004050785958e+006 1.003926262905e+006 1.004088672121e+006 1.003818984754e+006 1.004119123027e+006 1.005105900415e+006 1.004907132535e+006 1.004844260591e+006 1.005186872904e+006 1.005102912572e+006 1.004746634304e+006 1.004907016985e+006 1.005105396940e+006 1.004844317064e+006 1.005186602341e+006 1.003523727106e+006 1.003297071550e+006 1.003161443949e+006 1.003579836272e+006 1.003084174039e+006 1.003477213867e+006 1.003301501766e+006 1.003515378376e+006 1.003176963404e+006 1.003580273178e+006 1.003065632148e+006 1.002790153325e+006 1.002758146811e+006 1.003043135983e+006 1.002791973555e+006 1.005296094876e+006 1.005208616291e+006 1.005347891828e+006 1.005298075536e+006 1.005350822489e+006 1.005407515413e+006 1.005640194505e+006 1.005573183109e+006 1.005404302830e+006 1.004467783129e+006 1.004425834672e+006 1.004382801573e+006 1.004467849232e+006 1.004425772340e+006 1.002631285024e+006 1.002607449658e+006 1.002468770603e+006 1.002671030623e+006 1.002541041821e+006 1.004794333897e+006 1.004523504221e+006 1.004539138736e+006 1.004794402549e+006 1.004523533386e+006 1.007566275858e+006 1.007897478128e+006 1.007767386774e+006 1.007091153790e+006 1.006997355057e+006 1.006863529309e+006 1.007514025779e+006 1.007417096373e+006 1.007209082848e+006 1.007290059441e+006 1.007985431683e+006 1.007961014462e+006 1.007320234914e+006 1.007935955165e+006 1.007668068778e+006 1.007751982604e+006 1.007319447154e+006 1.007858049558e+006 1.007818995882e+006 1.007628769729e+006 1.007947065880e+006 1.007782854754e+006 1.007637250982e+006 1.007764931192e+006 1.006886414903e+006 1.006952439433e+006 1.006864609180e+006 1.007758725356e+006 1.007731821580e+006 1.007056964722e+006 1.007000299465e+006 1.008085893792e+006 1.007305154600e+006 1.008030456382e+006 1.007666177041e+006 1.007658669944e+006 1.007722671614e+006 1.007078977467e+006 1.006900855713e+006 1.006867351288e+006 1.007638313781e+006 1.007077080889e+006 1.006851787248e+006 1.006857303162e+006 1.007684922819e+006 1.006875490623e+006 1.006853910168e+006 1.007773541641e+006 1.007223643926e+006 1.006976632306e+006 1.007306822325e+006 1.006863229621e+006 1.006935565292e+006 1.007558663840e+006 1.006939882179e+006 1.006880149742e+006 1.007569008137e+006 1.006890317873e+006 1.007015735393e+006 1.007055057262e+006 1.006928099380e+006 1.007078788439e+006 1.006912482994e+006 1.007065057567e+006 1.007137648703e+006 1.007043912840e+006 1.007247297667e+006 1.007774920333e+006 1.007676873562e+006 1.007846107122e+006 1.006901544867e+006 1.007538213899e+006 1.008093028167e+006 1.007677379292e+006 1.007559730978e+006 1.007112784971e+006 1.006927758742e+006 1.007370146173e+006 1.007184044253e+006 1.007027029280e+006 1.006935108281e+006 1.006951280924e+006 1.007611955814e+006 1.007824213208e+006 1.007670205108e+006 1.007830962385e+006 1.008036232903e+006 1.007359336698e+006 1.007926059237e+006 1.007199254644e+006 1.006866106065e+006 1.007595635172e+006 1.006966328780e+006 1.007463961346e+006 1.007628811283e+006 1.007816770256e+006 1.006817101269e+006 1.007794587486e+006 1.007727114167e+006 1.007135015313e+006 1.007973716409e+006 1.007032337004e+006 1.007192402910e+006 1.006916321006e+006 1.006989922364e+006 1.007662432273e+006 1.008043957429e+006 1.007416762561e+006 1.007775512462e+006 1.008063171010e+006 1.008042655878e+006 1.006871257549e+006 1.008029020380e+006 1.007195196873e+006 1.007838023598e+006 1.007010450883e+006 1.006973884046e+006 1.007787188083e+006 1.008029056271e+006 1.007600590540e+006 1.006884115629e+006 1.006834201984e+006 1.006891009058e+006 1.007419891903e+006 1.006908797104e+006 1.006951371427e+006 1.007045618252e+006 1.006851667755e+006 1.007381466845e+006 1.008039970623e+006 1.005964845593e+006 1.005959532646e+006 1.007685637194e+006 1.008039625829e+006 1.006826549740e+006 1.007392767778e+006 1.006941079971e+006 1.007878655820e+006 1.007255346710e+006 1.007986338509e+006 1.006876303508e+006 1.007301808836e+006 1.006889771426e+006 1.007783339735e+006 1.007899782490e+006 1.006956998905e+006 1.007994467782e+006 1.006859919850e+006 1.006917292389e+006 1.007511698385e+006 1.007001721076e+006 1.007248458786e+006 1.007205440683e+006 1.007767586154e+006 1.007753403809e+006 1.006835939613e+006 1.008140402318e+006 1.007447399934e+006 1.007310930405e+006 1.007334645301e+006 1.007874355183e+006 1.007848116578e+006 1.007872238245e+006 1.007876432871e+006 1.007454570886e+006 1.007682704047e+006 1.007503319499e+006 1.006845585086e+006 1.007239887487e+006 1.007730475112e+006 1.007691982025e+006 1.007798958062e+006 1.007818773704e+006 1.007573693992e+006 1.007817172348e+006 1.007501553339e+006 1.007802401424e+006 1.007647956466e+006 1.007844473387e+006 1.007818451385e+006 1.005845184816e+006 1.005837412961e+006 1.006042431308e+006 1.006173502561e+006 1.005987706425e+006 1.005854430427e+006 1.005786451462e+006 1.005874284767e+006 1.006084133866e+006 1.006187733391e+006 1.006010984757e+006 1.005866079324e+006 1.006226709647e+006 1.005997312073e+006 1.006156048962e+006 1.006644611495e+006 1.006210566223e+006 1.006115973929e+006 1.005995354185e+006 1.006232251450e+006 1.006137817166e+006 1.006644234149e+006 1.006202539573e+006 1.006118244098e+006 1.006854955396e+006 1.006885730467e+006 1.006805458169e+006 1.006932731336e+006 1.006779600784e+006 1.006865222559e+006 1.006885718980e+006 1.006854933670e+006 1.006805406249e+006 1.006932728715e+006 1.006779593926e+006 1.006865231688e+006 1.006622544985e+006 1.006910170228e+006 1.006602477715e+006 1.006799656054e+006 1.006520401445e+006 1.006694956999e+006 1.006910153289e+006 1.006622605138e+006 1.006602435931e+006 1.006799614436e+006 1.006520400861e+006 1.006694942630e+006 1.007172884721e+006 1.007043028697e+006 1.006839644315e+006 1.006986198863e+006 1.007043057772e+006 1.007173035010e+006 1.006839665267e+006 1.006985770126e+006 1.006749328579e+006 1.006362923125e+006 1.006775735893e+006 1.006499956944e+006 1.006698466885e+006 1.006712042168e+006 1.006362882050e+006 1.006749334511e+006 1.006775931397e+006 1.006499995635e+006 1.006698512804e+006 1.006712047608e+006 1.006212991631e+006 1.006179224733e+006 1.006313446135e+006 1.006211843553e+006 1.006179509879e+006 1.006313095828e+006 1.006972465884e+006 1.007092010311e+006 1.006925863260e+006 1.006972480915e+006 1.007092151816e+006 1.006925947646e+006 1.006812498861e+006 1.006812623338e+006 1.006469762775e+006 1.006426955206e+006 1.006125486552e+006 1.006330049756e+006 1.006469044661e+006 1.006330238001e+006 1.006857897429e+006 1.006779209132e+006 1.006743077986e+006 1.006884237305e+006 1.006857882304e+006 1.006884231870e+006 1.006136486160e+006 1.006269857366e+006 1.006138288241e+006 1.007062419169e+006 1.007215049181e+006 1.007215450897e+006 1.007062923115e+006 1.006625843651e+006 1.006374989011e+006 1.006375025995e+006 1.006762633105e+006 1.006596625560e+006 1.006762643562e+006 1.006716792693e+006 1.006638397655e+006 1.006716768170e+006 1.006996509528e+006 1.006996464749e+006 1.006857849540e+006 1.007013155070e+006 1.007013193771e+006 1.006210185898e+006 1.005891378632e+006 1.006207951611e+006 1.006929807676e+006 1.005788921625e+006 1.005768590437e+006 1.005783607425e+006 1.005738117880e+006 1.005478765218e+006 1.005720267272e+006 1.005465168643e+006 1.007067378576e+006 1.007138643693e+006 1.007405245774e+006 1.007554171723e+006 1.007276674119e+006 1.007611291498e+006 1.008065769926e+006 1.007360974797e+006 1.008034133696e+006 1.007610621163e+006 1.007259252168e+006 1.007520144695e+006 1.007445388747e+006 1.007082356493e+006 1.000576050907e+006 1.001507978992e+006 1.001356944673e+006 1.007859773488e+006 1.007217227903e+006 1.007700471140e+006 1.007849536509e+006 1.007444896515e+006 1.007807506359e+006 1.006817519014e+006 1.007563319583e+006 1.007442447644e+006 1.008060905508e+006 1.007652235855e+006 1.007127591633e+006 1.007166584681e+006 1.007426543238e+006 1.008038804868e+006 1.007106716987e+006 1.007884990486e+006 1.007410050334e+006 1.007824468584e+006 1.007111851470e+006 1.007087378751e+006 1.007105800326e+006 1.007656732689e+006 1.007102440824e+006 1.007847511502e+006 1.007495602177e+006 1.007597841006e+006 1.007829508366e+006 1.007592699610e+006 1.007202611076e+006 1.007668616942e+006 1.007315412808e+006 1.006910492549e+006 1.007512173803e+006 1.007860007204e+006 1.007351529060e+006 1.006942121945e+006 1.007010868755e+006 1.007325720326e+006 1.007341478059e+006 1.007313777189e+006 1.007623703605e+006 1.007645008566e+006 1.007862602712e+006 1.007468395601e+006 1.007615086090e+006 1.007002204046e+006 1.007929829172e+006 1.006930504919e+006 1.007478520846e+006 1.007295030571e+006 1.007403181697e+006 1.007573433166e+006 1.006896513230e+006 1.007045435005e+006 1.007848735992e+006 1.006922448776e+006 1.006969893529e+006 1.007597585611e+006 1.007619809156e+006 1.007032000654e+006 1.007085510374e+006 1.007046328665e+006 1.007329263320e+006 1.006995037658e+006 1.007513252995e+006 1.007604164626e+006 1.007580146489e+006 1.007026123271e+006 1.007208560663e+006 1.007734241812e+006 1.007935904108e+006 1.007593649041e+006 1.007132532371e+006 1.007192779362e+006 1.006947112321e+006 1.006875480925e+006 1.007588850091e+006 1.007889850059e+006 1.006799587598e+006 1.006868242073e+006 1.007634551673e+006 1.008072023821e+006 1.007499483121e+006 1.006944556957e+006 1.007682432032e+006 1.007806872536e+006 1.007437523616e+006 1.007062468049e+006 1.007869706203e+006 1.007304187638e+006 1.007439260904e+006 1.007398401764e+006 1.007402909914e+006 1.006856345690e+006 1.007043746501e+006 1.007549846165e+006 1.007918544483e+006 1.007350558125e+006 1.006900615845e+006 1.007209562731e+006 1.007578901292e+006 1.007602413549e+006 1.007977083541e+006 1.007143020518e+006 1.006920649098e+006 1.007756414274e+006 1.007804861554e+006 1.007761772252e+006 1.007449944492e+006 1.006837954387e+006 1.007400367233e+006 1.007915989762e+006 1.007317789642e+006 1.007925476234e+006 1.007903468163e+006 1.007636256672e+006 1.006940307010e+006 1.007868900814e+006 1.007969388536e+006 1.006868229434e+006 1.007038473937e+006 1.007699715818e+006 1.007349500802e+006 1.007111703760e+006 1.007177965711e+006 1.007885853932e+006 1.007348790603e+006 1.007626714067e+006 1.007978612687e+006 1.007087207953e+006 1.007279824398e+006 1.007601019375e+006 1.007159463132e+006 1.007266779707e+006 1.007693234852e+006 1.007009203935e+006 1.007128685453e+006 1.007085738952e+006 1.007968873113e+006 1.008090128349e+006 1.006893779810e+006 1.006977511985e+006 1.007098803859e+006 1.007674698684e+006 1.007343574194e+006 1.007381792606e+006 1.008051214658e+006 1.007800054279e+006 1.007401127533e+006 1.007489672149e+006 1.007788372400e+006 1.007884390841e+006 1.007597841032e+006 1.007523739169e+006 1.007103163199e+006 1.007273426068e+006 1.006985435235e+006 1.008077959067e+006 1.006796212183e+006 1.007653710804e+006 1.007534597823e+006 1.007190324627e+006 1.006974505517e+006 1.007716980917e+006 1.006923895739e+006 1.006822570755e+006 1.007233936662e+006 1.007802970122e+006 1.007306547024e+006 1.007674867757e+006 1.007495103351e+006 1.007273017703e+006 1.007876291425e+006 1.007093209615e+006 1.006770421751e+006 1.007900960098e+006 1.007250057615e+006 1.007973767977e+006 1.007037231438e+006 1.007765538672e+006 1.007368498962e+006 1.006854140291e+006 1.007767443000e+006 1.007187595475e+006 1.007838286550e+006 1.006964519795e+006 1.007343335044e+006 1.007573643943e+006 1.006912360301e+006 1.006951828308e+006 1.007652099201e+006 1.000816706728e+006 1.000783413733e+006 1.000592406673e+006 1.007219995910e+006 1.007408956345e+006 1.007933418111e+006 1.007691914694e+006 1.007054630552e+006 1.007863090812e+006 1.007237655298e+006 1.006919677832e+006 1.007771795173e+006 1.007248986056e+006 1.005735015813e+006 1.005746577829e+006 1.007408241940e+006 1.007871340325e+006 1.007480078652e+006 1.007242263717e+006 1.007664585925e+006 1.006901247203e+006 1.007665236899e+006 1.007064638428e+006 1.007707895875e+006 1.007277641992e+006 1.007526216562e+006 1.007256539285e+006 1.007170475371e+006 1.002729738845e+006 1.001737265877e+006 1.007683881452e+006 1.006881632368e+006 1.006971998972e+006 1.007537971802e+006 1.007012616238e+006 1.007263045837e+006 1.007109010641e+006 1.007160428452e+006 1.007105164746e+006 1.007155301030e+006 1.006933453066e+006 1.007146530692e+006 1.006926195253e+006 1.006841116237e+006 1.006887841516e+006 1.007099395910e+006 1.007171671960e+006 1.007098480372e+006 1.007750814985e+006 1.007276921384e+006 1.007210887184e+006 1.007433200198e+006 1.007255182329e+006 1.006906292915e+006 1.007823612645e+006 1.007944814143e+006 1.006874292953e+006 1.006784829562e+006 1.008039303725e+006 1.006854839849e+006 1.007092332266e+006 1.007675392038e+006 1.001157787109e+006 1.001027949861e+006 1.007608555508e+006 1.008026372525e+006 1.007612558515e+006 1.007797460197e+006 1.007688289280e+006 1.007554552072e+006 1.007054204386e+006 1.005279323309e+006 1.005273401940e+006 1.007663301074e+006 1.007651129546e+006 1.007018333189e+006 1.007623024218e+006 1.007587355489e+006 1.007708957542e+006 1.007895292096e+006 1.007542375481e+006 1.006915153763e+006 1.000374216184e+006 1.000310353530e+006 1.007691258473e+006 1.007894452977e+006 1.007844537957e+006 1.007152709276e+006 1.007716249714e+006 1.007625673568e+006 1.007809945290e+006 1.007471168018e+006 1.006923066287e+006 1.007102737902e+006 1.007126987166e+006 1.007383319664e+006 1.007218827752e+006 1.007091197109e+006 1.007402505358e+006 1.007156896109e+006 1.007150432413e+006 1.007171991995e+006 1.006996252083e+006 1.007137690997e+006 1.007159884364e+006 1.007299394394e+006 1.007081215722e+006 1.007265864451e+006 1.007080243308e+006 1.007316592869e+006 1.007189508953e+006 1.007332670246e+006 1.007352674351e+006 1.007332274285e+006 1.007344970933e+006 1.007221579511e+006 1.007180614946e+006 1.007039087225e+006 1.007182517144e+006 1.007042933015e+006 1.007561213549e+006 1.007274246917e+006 1.007446464509e+006 1.007279315307e+006 1.007453271531e+006 1.007144019867e+006 1.007057222229e+006 1.007158244953e+006 1.007107465141e+006 1.007063636988e+006 1.007143511735e+006 1.007152761834e+006 1.007076383608e+006 1.007242572645e+006 1.007381240122e+006 1.007245002419e+006 1.007410455794e+006 1.007051753841e+006 1.007131107574e+006 1.007044840208e+006 1.007122143308e+006 1.007373627474e+006 1.007322834820e+006 1.007374001106e+006 1.007321674422e+006 1.007244145611e+006 1.007009688110e+006 1.007442196494e+006 1.007449529655e+006 1.007229907750e+006 1.007218451184e+006 1.007011544830e+006 1.007245556046e+006 1.007436807510e+006 1.007449383765e+006 1.007231411565e+006 1.007220400598e+006 1.007135287999e+006 1.007107954273e+006 1.007284663190e+006 1.007133577388e+006 1.007098154505e+006 1.007287106370e+006 1.007574175191e+006 1.007385823642e+006 1.007470916681e+006 1.007566292039e+006 1.007367955599e+006 1.007470199354e+006 1.006962956210e+006 1.007354350367e+006 1.006977514552e+006 1.006967644020e+006 1.007404416547e+006 1.007000151308e+006 1.007640767973e+006 1.007024542729e+006 1.007611167678e+006 1.007042605730e+006 1.007122976145e+006 1.007513663981e+006 1.007125322762e+006 1.007504985805e+006 1.007032653241e+006 1.007186416331e+006 1.007143133523e+006 1.007034369445e+006 1.007186332797e+006 1.007143439380e+006 1.007026743569e+006 1.007278015160e+006 1.007025675786e+006 1.007277990427e+006 1.007374266886e+006 1.007379124785e+006 1.007321871437e+006 1.007319558064e+006 1.006992541261e+006 1.006978281980e+006 1.007084271192e+006 1.007621369920e+006 1.007066582810e+006 1.007380242779e+006 1.007500828121e+006 1.007475795934e+006 1.007102992030e+006 1.007113702746e+006 1.007109322058e+006 1.007535815281e+006 1.007155083271e+006 1.007533202791e+006 1.007148409032e+006 1.007340683342e+006 1.007022663487e+006 1.007321454821e+006 1.007009778771e+006 1.007029822717e+006 1.007714588802e+006 1.007138918114e+006 1.006915686538e+006 1.007735274384e+006 1.007720500455e+006 1.007630022978e+006 1.007512849165e+006 1.007417385925e+006 1.007549080478e+006 1.007520166080e+006 1.007482694754e+006 1.007097578871e+006 1.007325937549e+006 1.006957574139e+006 1.007356209977e+006 1.007145790228e+006 1.007025678004e+006 1.007159800474e+006 1.007132923940e+006 1.007119180838e+006 1.007742507692e+006 1.007802438263e+006 1.007214442014e+006 1.007627956317e+006 1.007237016715e+006 1.007360721698e+006 1.007623571002e+006 1.000000000000e+006 1.000000000000e+006 1.000323107382e+006 1.007651179593e+006 1.007933736757e+006 1.007193223755e+006 1.007754675667e+006 1.007751269198e+006 1.006997319187e+006 1.007860503457e+006 1.007357691138e+006 1.007821964976e+006 1.007136116589e+006 1.007040594227e+006 1.007020776624e+006 1.006974634844e+006 1.007254970252e+006 1.007146000378e+006 1.007695314310e+006 1.007883305860e+006 1.007371597032e+006 1.007074954375e+006 1.007117052680e+006 1.007710041617e+006 1.007645101880e+006 1.007674292946e+006 1.005394829739e+006 1.005392148346e+006 1.007957936202e+006 1.006988165413e+006 1.006988515514e+006 1.007198707634e+006 1.007270921830e+006 1.007764454553e+006 1.007105991692e+006 1.007079788298e+006 1.006882590439e+006 1.007300633708e+006 1.007424105271e+006 1.007105469268e+006 1.007346267611e+006 1.007064495942e+006 1.001874279489e+006 1.001475855950e+006 1.007852654103e+006 1.007579533195e+006 1.001815592678e+006 1.007834786941e+006 1.007352756910e+006 1.007848754894e+006 1.007452326671e+006 1.007400566730e+006 1.000648837783e+006 1.007892575828e+006 1.007782528552e+006 1.006947471684e+006 1.007170749406e+006 1.007896695099e+006 1.007109155750e+006 1.007107670214e+006 1.007929673440e+006 1.007540521796e+006 1.007421019115e+006 1.007257636927e+006 1.007828675475e+006 1.007684139765e+006 1.006982324266e+006 1.007327126918e+006 1.007426916090e+006 1.007561490831e+006 1.007218964288e+006 1.007129888907e+006 1.007867767155e+006 1.007606462065e+006 1.007879936224e+006 1.007857039043e+006 1.007580971037e+006 1.006929269437e+006 1.007012301104e+006 1.002093254690e+006 1.007674181165e+006 1.000891447348e+006 1.007163041010e+006 1.006888696747e+006 1.007358850151e+006 1.007120029929e+006 1.007581069662e+006 1.007930415769e+006 1.007608415719e+006 1.007675997870e+006 1.007823327610e+006 1.007797886687e+006 1.007827265187e+006 1.007881581438e+006 1.007779226661e+006 1.002010299704e+006 1.002178778553e+006 1.001250946858e+006 1.002387000788e+006 1.007648116981e+006 1.002208306503e+006 1.002295412211e+006 1.006995853816e+006 1.007643755284e+006 1.007772957735e+006 1.007846173500e+006 1.002258514706e+006 1.007233272174e+006 1.007263844905e+006 1.006988694850e+006 1.006988439398e+006 1.007220620723e+006 1.007217096959e+006 1.007867883624e+006 1.007658485811e+006 1.006972933713e+006 1.006976262885e+006 1.006945544824e+006 1.006962836776e+006 1.007644967818e+006 1.007744119985e+006 
        </DataArray>
        <DataArray type="Float64" Name="MEAN_PRESSURE" format="ascii">