<?xml version="1.0"?>
<VTKFile type="UnstructuredGrid" version="0.1" byte_order="LittleEndian">
  <UnstructuredGrid>
    <Piece NumberOfPoints="963" NumberOfCells="1758">
      <Points>
        <DataArray type="Float64" NumberOfComponents="3" format="ascii">
          1.600262034769e+002 1.257989505921e+001 0.000000000000e+000
          1.635346199106e+002 2.000000000000e+001 0.000000000000e+000
          1.554515002484e+002 2.000000000000e+001 0.000000000000e+000
          3.459306441575e+000 1.667621982453e+001 0.000000000000e+000
          3.062266634850e+000 1.705413688405e+001 0.000000000000e+000
          2.873380769063e+000 1.650527725632e+001 0.000000000000e+000
          1.514088444034e+000 1.865189448105e+001 0.000000000000e+000
          1.967902677551e+000 1.834103489750e+001 0.000000000000e+000
          2.034564522234e+000 1.890806711991e+001 0.000000000000e+000
          2.478275273162e+000 1.702762299110e+001 0.000000000000e+000
          2.952621433467e+000 1.774357373580e+001 0.000000000000e+000
          2.237893542067e+000 1.782457469610e+001 0.000000000000e+000
          3.313583922780e+000 3.274674552047e+000 0.000000000000e+000
          2.561432712787e+000 3.156040447793e+000 0.000000000000e+000
          3.047531989640e+000 2.714594415171e+000 0.000000000000e+000
          2.750804692284e+000 3.936058190693e+000 0.000000000000e+000
          2.599039179818e+000 2.451529939148e+000 0.000000000000e+000
          3.139686649742e+000 2.186924052088e+000 0.000000000000e+000
          1.919984553221e+000 3.358010194268e+000 0.000000000000e+000
          1.960900304591e+000 2.773319745251e+000 0.000000000000e+000
          1.894565400391e+000 1.733316857565e+001 0.000000000000e+000
          0.000000000000e+000 1.538461538461e+001 0.000000000000e+000
          5.816229249735e-001 1.567919247147e+001 0.000000000000e+000
          0.000000000000e+000 1.589743589743e+001 0.000000000000e+000
          9.766405669483e+001 2.000000000000e+001 0.000000000000e+000
          1.010672711393e+002 1.500000000000e+001 0.000000000000e+000
          1.029329279907e+002 2.000000000000e+001 0.000000000000e+000
          9.588503785413e+001 1.500000000000e+001 0.000000000000e+000
          1.039231647117e+002 1.000000000000e+001 0.000000000000e+000
          9.860830811271e+001 1.000000000000e+001 0.000000000000e+000
          1.010672711397e+002 5.000000000000e+000 0.000000000000e+000
          9.766405669557e+001 0.000000000000e+000 0.000000000000e+000
          1.029329279915e+002 0.000000000000e+000 0.000000000000e+000
          9.588503785449e+001 5.000000000000e+000 0.000000000000e+000
          7.892434178002e+001 2.000000000000e+001 0.000000000000e+000
          8.173808356948e+001 1.500000000000e+001 0.000000000000e+000
          8.328058896910e+001 2.000000000000e+001 0.000000000000e+000
          7.679274808893e+001 1.514423393202e+001 0.000000000000e+000
          7.970503892166e+001 1.000000000000e+001 0.000000000000e+000
          8.409930620613e+001 1.000000000000e+001 0.000000000000e+000
          8.173808356980e+001 5.000000000000e+000 0.000000000000e+000
          7.892434178065e+001 0.000000000000e+000 0.000000000000e+000
          8.328058896976e+001 0.000000000000e+000 0.000000000000e+000
          7.679274808925e+001 4.855766067979e+000 0.000000000000e+000
          1.084583939765e+002 2.000000000000e+001 0.000000000000e+000
          1.122011528880e+002 1.500000000000e+001 0.000000000000e+000
          1.142529496098e+002 2.000000000000e+001 0.000000000000e+000
          1.065018792644e+002 1.500000000000e+001 0.000000000000e+000
          1.153419838410e+002 1.000000000000e+001 0.000000000000e+000
          1.094968549120e+002 1.000000000000e+001 0.000000000000e+000
          1.122011528884e+002 5.000000000000e+000 0.000000000000e+000
          1.084583939773e+002 0.000000000000e+000 0.000000000000e+000
          1.142529496106e+002 0.000000000000e+000 0.000000000000e+000
          1.065018792648e+002 5.000000000000e+000 0.000000000000e+000
          1.181779812237e+002 1.500000000000e+001 0.000000000000e+000
          1.203297004775e+002 2.000000000000e+001 0.000000000000e+000
          1.214717707847e+002 1.000000000000e+001 0.000000000000e+000
          1.181779812242e+002 5.000000000000e+000 0.000000000000e+000
          1.203297004784e+002 0.000000000000e+000 0.000000000000e+000
          7.477039199538e+001 2.000000000000e+001 0.000000000000e+000
          7.551483469771e+001 1.000000000000e+001 0.000000000000e+000
          7.296959467356e+001 1.385646386579e+001 0.000000000000e+000
          7.477039199599e+001 0.000000000000e+000 0.000000000000e+000
          7.296959467379e+001 6.143536134207e+000 0.000000000000e+000
          6.918477198508e+001 1.366665532880e+001 0.000000000000e+000
          6.746477463053e+001 1.000000000000e+001 0.000000000000e+000
          7.151921701478e+001 1.000000000000e+001 0.000000000000e+000
          6.918477198529e+001 6.333344671202e+000 0.000000000000e+000
          9.263986346551e+001 2.000000000000e+001 0.000000000000e+000
          9.094345943471e+001 1.500000000000e+001 0.000000000000e+000
          9.354026529380e+001 1.000000000000e+001 0.000000000000e+000
          9.263986346623e+001 0.000000000000e+000 0.000000000000e+000
          9.094345943506e+001 5.000000000000e+000 0.000000000000e+000
          1.244344522558e+002 1.503312574389e+001 0.000000000000e+000
          1.267023895482e+002 2.000000000000e+001 0.000000000000e+000
          1.285510028831e+002 1.020485663255e+001 0.000000000000e+000
          1.244344522563e+002 5.033125743893e+000 0.000000000000e+000
          1.267023895491e+002 0.000000000000e+000 0.000000000000e+000
          8.623136018348e+001 1.500000000000e+001 0.000000000000e+000
          8.784898578901e+001 2.000000000000e+001 0.000000000000e+000
          8.870757443665e+001 1.000000000000e+001 0.000000000000e+000
          8.623136018382e+001 5.000000000000e+000 0.000000000000e+000
          8.784898578969e+001 0.000000000000e+000 0.000000000000e+000
          4.872472752737e+000 0.000000000000e+000 0.000000000000e+000
          4.204479229380e+000 6.412840757122e-001 0.000000000000e+000
          4.157376851380e+000 0.000000000000e+000 0.000000000000e+000
          5.192892237051e+000 7.280355562789e-001 0.000000000000e+000
          1.306630304579e+000 6.212843344151e-001 0.000000000000e+000
          1.050228457081e+000 0.000000000000e+000 0.000000000000e+000
          1.614006202528e+000 0.000000000000e+000 0.000000000000e+000
          1.266763055794e+001 1.554696422866e+001 0.000000000000e+000
          1.263589100638e+001 1.657720348306e+001 0.000000000000e+000
          1.174268578662e+001 1.633018318031e+001 0.000000000000e+000
          6.588835695415e+000 7.505681085529e+000 0.000000000000e+000
          6.456871838389e+000 6.658671683861e+000 0.000000000000e+000
          7.208099140752e+000 7.038822846307e+000 0.000000000000e+000
          4.412623338166e+000 9.138856431549e+000 0.000000000000e+000
          4.024185797397e+000 8.708923235630e+000 0.000000000000e+000
          4.601447447338e+000 8.507292699647e+000 0.000000000000e+000
          5.325995059827e-001 6.308307298123e+000 0.000000000000e+000
          0.000000000000e+000 6.666666666655e+000 0.000000000000e+000
          0.000000000000e+000 6.153846153835e+000 0.000000000000e+000
          3.986461521768e+000 8.146114708182e+000 0.000000000000e+000
          2.411603373059e+000 6.510912162016e+000 0.000000000000e+000
          1.807525763324e+000 6.938080373464e+000 0.000000000000e+000
          1.686779352680e+000 6.178928843543e+000 0.000000000000e+000
          2.510760620997e+000 7.229076682239e+000 0.000000000000e+000
          3.166991983438e+000 6.906135870389e+000 0.000000000000e+000
          3.452788915829e+000 6.276851216781e+000 0.000000000000e+000
          3.340122000742e+000 5.656365440432e+000 0.000000000000e+000
          4.047936562877e+000 5.873561587395e+000 0.000000000000e+000
          1.802463974828e+000 1.292744708026e+001 0.000000000000e+000
          1.383967161336e+000 1.330299552906e+001 0.000000000000e+000
          1.329690820161e+000 1.266495373033e+001 0.000000000000e+000
          2.267922292389e+000 1.431116835808e+001 0.000000000000e+000
          2.854613987538e+000 1.466581611369e+001 0.000000000000e+000
          2.339869278674e+000 1.493776402241e+001 0.000000000000e+000
          4.690956878046e+000 3.115726773737e+000 0.000000000000e+000
          4.014773718330e+000 2.850429494150e+000 0.000000000000e+000
          4.643493383296e+000 2.293565471327e+000 0.000000000000e+000
          5.186083944243e+000 1.661927139510e+000 0.000000000000e+000
          5.452965511439e+000 2.679881546544e+000 0.000000000000e+000
          5.360460104304e+000 3.539902157655e+000 0.000000000000e+000
          6.197986304192e+000 3.115706366113e+000 0.000000000000e+000
          7.929356606585e-001 1.634705420870e+001 0.000000000000e+000
          1.222819867503e+000 1.599517159419e+001 0.000000000000e+000
          1.215723647926e+000 1.546209040954e+001 0.000000000000e+000
          1.770601276021e+000 1.521217632514e+001 0.000000000000e+000
          1.242830150061e+000 1.493919370237e+001 0.000000000000e+000
          1.166444124506e+000 4.610115997312e+000 0.000000000000e+000
          1.851620547934e+000 4.486892013458e+000 0.000000000000e+000
          1.494152702314e+000 5.145235789232e+000 0.000000000000e+000
          1.353088107040e+000 4.090803091641e+000 0.000000000000e+000
          3.802567455935e+000 5.084697985980e+000 0.000000000000e+000
          1.014840185783e+000 5.494768572296e+000 0.000000000000e+000
          8.831064584820e-001 5.109311190608e+000 0.000000000000e+000
          1.727903958959e+000 1.618384478933e+001 0.000000000000e+000
          1.343261525342e+000 1.651800241408e+001 0.000000000000e+000
          3.308120627291e+000 8.593311644828e+000 0.000000000000e+000
[...]
      <PointData Scalars="LIQUID_PRESSURE">
        <DataArray type="Float64" Name="LIQUID_PRESSURE" format="ascii">
          1.001939321397e+006 1.002326481876e+006 1.000968336109e+006 1.009083143057e+006 1.009232215427e+006 1.009441148150e+006 1.009420451109e+006 1.010118432649e+006 1.010180715042e+006 1.010105350688e+006 1.009322425801e+006 1.010209387155e+006 1.008988727350e+006 1.009937007260e+006 1.009201619101e+006 1.009560735929e+006 1.009906709906e+006 1.009068477091e+006 1.010087922086e+006 1.010176016806e+006 1.009985331512e+006 1.010001916893e+006 1.009444001334e+006 1.009988324391e+006 1.005074641401e+006 1.004853905813e+006 1.004713119099e+006 1.005126314617e+006 1.004634826008e+006 1.005021118027e+006 1.004853343125e+006 1.005073994990e+006 1.004715845392e+006 1.005126488695e+006 1.006413729834e+006 1.006163981980e+006 1.006074584460e+006 1.006528892002e+006 1.006399860980e+006 1.005957725463e+006 1.006163833992e+006 1.006413221935e+006 1.006074615951e+006 1.006528721753e+006 1.004321679834e+006 1.004029806672e+006 1.003855121677e+006 1.004407481513e+006 1.003756486293e+006 1.004259051630e+006 1.004034772147e+006 1.004312406043e+006 1.003873110834e+006 1.004407758636e+006 1.003705979036e+006 1.003369929181e+006 1.003327970884e+006 1.003684231249e+006 1.003381130374e+006 1.006671665178e+006 1.006569767578e+006 1.006752536134e+006 1.006673788135e+006 1.006755502900e+006 1.006867167170e+006 1.007141749823e+006 1.007008282506e+006 1.006863598950e+006 1.005549370257e+006 1.005524330892e+006 1.005444334369e+006 1.005549401100e+006 1.005524248905e+006 1.003149087343e+006 1.003093044247e+006 1.002877252370e+006 1.003196390977e+006 1.003004628501e+006 1.005982888385e+006 1.005668180119e+006 1.005676479651e+006 1.005982951480e+006 1.005668200877e+006 1.009688086780e+006 1.010027976649e+006 1.009898999381e+006 1.009216345138e+006 1.009132304281e+006 1.008995896668e+006 1.009649797588e+006 1.009521926397e+006 1.009316200447e+006 1.009398348765e+006 1.010106204007e+006 1.010084123600e+006 1.009440400048e+006 1.010059686705e+006 1.009798620828e+006 1.009876856986e+006 1.009444306298e+006 1.009981939269e+006 1.009943330460e+006 1.009759333480e+006 1.010076039356e+006 1.009916782686e+006 1.009772602586e+006 1.009893545344e+006 1.009019916369e+006 1.009088600515e+006 1.008998471541e+006 1.009888856043e+006 1.009866519135e+006 1.009192323353e+006 1.009135703672e+006 1.010216189688e+006 1.009433766274e+006 1.010159389337e+006 1.009789356221e+006 1.009788122558e+006 1.009846900494e+006 1.009204132115e+006 1.009028541780e+006 1.008995832455e+006 1.009764467004e+006 1.009203304412e+006 1.008985032583e+006 1.008991060349e+006 1.009819663020e+006 1.009009948396e+006 1.008986570755e+006 1.009910070179e+006 1.009360263480e+006 1.009112031082e+006 1.009441400025e+006 1.008994588154e+006 1.009063553718e+006 1.009693485585e+006 1.009074627223e+006 1.009015196047e+006 1.009698236592e+006 1.009024845126e+006 1.009143726254e+006 1.009181758720e+006 1.009062858225e+006 1.009205406515e+006 1.009041770847e+006 1.009201404349e+006 1.009267636079e+006 1.009170821975e+006 1.009377360643e+006 1.009904130006e+006 1.009802081621e+006 1.009977213666e+006 1.009036136095e+006 1.009673917064e+006 1.010226094965e+006 1.009807594394e+006 1.009681367074e+006 1.009240075484e+006 1.009059120767e+006 1.009499066137e+006 1.009320236069e+006 1.009162948082e+006 1.009063705515e+006 1.009077743465e+006 1.009746287064e+006 1.009955806076e+006 1.009795722923e+006 1.009962067690e+006 1.010166133527e+006 1.009493735894e+006 1.010055085258e+006 1.009334895519e+006 1.008997992005e+006 1.009724806740e+006 1.009100582233e+006 1.009593242988e+006 1.009753188365e+006 1.009945563938e+006 1.008948537062e+006 1.009929959272e+006 1.009862248957e+006 1.009265659010e+006 1.010102385177e+006 1.009158689262e+006 1.009317146733e+006 1.009050303202e+006 1.009124833410e+006 1.009797681627e+006 1.010174908330e+006 1.009544869468e+006 1.009895020705e+006 1.010193890590e+006 1.010172963935e+006 1.009000018464e+006 1.010158650063e+006 1.009330575894e+006 1.009966988721e+006 1.009144802084e+006 1.009109590302e+006 1.009917355725e+006 1.010162688379e+006 1.009736240221e+006 1.009018787603e+006 1.008965382064e+006 1.009026868764e+006 1.009555550546e+006 1.009042604247e+006 1.009084037461e+006 1.009180906201e+006 1.008982021285e+006 1.009517616551e+006 1.010172408144e+006 1.007506516262e+006 1.007501302941e+006 1.009813659719e+006 1.010170117290e+006 1.008955209258e+006 1.009517538313e+006 1.009066477810e+006 1.009995765878e+006 1.009390128846e+006 1.010111468672e+006 1.009008773850e+006 1.009437356681e+006 1.009021189809e+006 1.009918306541e+006 1.010027964741e+006 1.009086162501e+006 1.010128076635e+006 1.008993870117e+006 1.009051406076e+006 1.009640628823e+006 1.009137520913e+006 1.009373157558e+006 1.009338881746e+006 1.009902755303e+006 1.009889153119e+006 1.008969255418e+006 1.010272070161e+006 1.009583047443e+006 1.009434661690e+006 1.009459915556e+006 1.010000062542e+006 1.009975832282e+006 1.009998353715e+006 1.010001534244e+006 1.009578520468e+006 1.009810723236e+006 1.009626609145e+006 1.008976795375e+006 1.009363717937e+006 1.009859205415e+006 1.009819192261e+006 1.009930536252e+006 1.009950189026e+006 1.009697396109e+006 1.009948880052e+006 1.009624917405e+006 1.009933014811e+006 1.009773206573e+006 1.009975883473e+006 1.009950302591e+006 1.007456666852e+006 1.007409115165e+006 1.007610970505e+006 1.007811214109e+006 1.007551228572e+006 1.007462947213e+006 1.007355780652e+006 1.007487056969e+006 1.007652689856e+006 1.007826186473e+006 1.007575075662e+006 1.007475054084e+006 1.007937079269e+006 1.007673364391e+006 1.007816897509e+006 1.008381023353e+006 1.007875331466e+006 1.007818609948e+006 1.007671239064e+006 1.007942626737e+006 1.007798403764e+006 1.008380636268e+006 1.007867163897e+006 1.007820865146e+006 1.008790929294e+006 1.008808895822e+006 1.008716094862e+006 1.008879823601e+006 1.008689359637e+006 1.008800114510e+006 1.008808883183e+006 1.008790909266e+006 1.008716039253e+006 1.008879826645e+006 1.008689351356e+006 1.008800126416e+006 1.008505678352e+006 1.008783324175e+006 1.008458409883e+006 1.008697446929e+006 1.008371577475e+006 1.008577773502e+006 1.008783306665e+006 1.008505737979e+006 1.008458369672e+006 1.008697401874e+006 1.008371578760e+006 1.008577757183e+006 1.009169863031e+006 1.009029173792e+006 1.008814820388e+006 1.008988546785e+006 1.009029205907e+006 1.009170026481e+006 1.008814851353e+006 1.008988104347e+006 1.008579115308e+006 1.008162836384e+006 1.008571335881e+006 1.008333577038e+006 1.008491450835e+006 1.008538882880e+006 1.008162802622e+006 1.008579127836e+006 1.008571537514e+006 1.008333621567e+006 1.008491501921e+006 1.008538893484e+006 1.007959593274e+006 1.007937728334e+006 1.008061799164e+006 1.007958428926e+006 1.007938009896e+006 1.008061439022e+006 1.008931796489e+006 1.009063880795e+006 1.008881655186e+006 1.008931820697e+006 1.009064032056e+006 1.008881743583e+006 1.008784792290e+006 1.008784898576e+006 1.008205021553e+006 1.008187422725e+006 1.007838595840e+006 1.008100850489e+006 1.008204291959e+006 1.008101038692e+006 1.008760940283e+006 1.008695119162e+006 1.008633914760e+006 1.008811712521e+006 1.008760924114e+006 1.008811707698e+006 1.007825749123e+006 1.007949451575e+006 1.007827534493e+006 1.009054684569e+006 1.009213191801e+006 1.009213653094e+006 1.009055232787e+006 1.008424262415e+006 1.008181569979e+006 1.008181613299e+006 1.008636777606e+006 1.008457945801e+006 1.008636787950e+006 1.008562057939e+006 1.008470953278e+006 1.008562034942e+006 1.008965635920e+006 1.008965594424e+006 1.008798259223e+006 1.008964914613e+006 1.008964956077e+006 1.007858583404e+006 1.007508512008e+006 1.007856246193e+006 1.008894903263e+006 1.007368117976e+006 1.007323016594e+006 1.007362914376e+006 1.007246257904e+006 1.006980822055e+006 1.007226885438e+006 1.006966430554e+006 1.009189929279e+006 1.009263647928e+006 1.009524860799e+006 1.009673671633e+006 1.009407871703e+006 1.009740569831e+006 1.010196424789e+006 1.009490328990e+006 1.010166752477e+006 1.009733403290e+006 1.009384339628e+006 1.009655448861e+006 1.009568999852e+006 1.009212690608e+006 1.001462443214e+006 1.001821433848e+006 1.003667720858e+006 1.009980518356e+006 1.009341466093e+006 1.009820033984e+006 1.009972027361e+006 1.009578055169e+006 1.009937309479e+006 1.008950106787e+006 1.009695556685e+006 1.009578142735e+006 1.010191250744e+006 1.009786912756e+006 1.009249596702e+006 1.009290635017e+006 1.009547242555e+006 1.010169244161e+006 1.009237489364e+006 1.010009885328e+006 1.009533877520e+006 1.009951523586e+006 1.009238838248e+006 1.009208950251e+006 1.009228214619e+006 1.009775850451e+006 1.009228380739e+006 1.009969643638e+006 1.009618863058e+006 1.009710880784e+006 1.009946485887e+006 1.009713315381e+006 1.009327670742e+006 1.009800916513e+006 1.009451292744e+006 1.009046370164e+006 1.009635659635e+006 1.009975190695e+006 1.009464637852e+006 1.009059059770e+006 1.009146353709e+006 1.009455736035e+006 1.009452647368e+006 1.009421570457e+006 1.009733461346e+006 1.009763612218e+006 1.009984419935e+006 1.009576314557e+006 1.009725701481e+006 1.009115061587e+006 1.010056391874e+006 1.009059938918e+006 1.009605214234e+006 1.009393493827e+006 1.009503355197e+006 1.009707871266e+006 1.009030633018e+006 1.009169256089e+006 1.009969691572e+006 1.009047553422e+006 1.009092480724e+006 1.009716552793e+006 1.009740809335e+006 1.009160480297e+006 1.009204465697e+006 1.009166141401e+006 1.009440378525e+006 1.009103974027e+006 1.009618201317e+006 1.009717378739e+006 1.009685546231e+006 1.009137546542e+006 1.009317357915e+006 1.009834574746e+006 1.010065625348e+006 1.009727557545e+006 1.009249020318e+006 1.009310248999e+006 1.009075485158e+006 1.009009090174e+006 1.009711835815e+006 1.010014269102e+006 1.008932159366e+006 1.008998445824e+006 1.009763109922e+006 1.010203348331e+006 1.009625856731e+006 1.009073139663e+006 1.009801366530e+006 1.009921953744e+006 1.009552186064e+006 1.009185835454e+006 1.009982692950e+006 1.009419123691e+006 1.009560132151e+006 1.009528714887e+006 1.009532408671e+006 1.008984628427e+006 1.009167962505e+006 1.009672927135e+006 1.010038067289e+006 1.009475325389e+006 1.009028531790e+006 1.009325298353e+006 1.009686289124e+006 1.009712905500e+006 1.010105400576e+006 1.009278218440e+006 1.009046460145e+006 1.009866779527e+006 1.009929240073e+006 1.009869511938e+006 1.009565622554e+006 1.008969372497e+006 1.009523922642e+006 1.010038939079e+006 1.009440865263e+006 1.010050009382e+006 1.010021582275e+006 1.009761439013e+006 1.009065644654e+006 1.009984645727e+006 1.010103010237e+006 1.009002648959e+006 1.009168572857e+006 1.009831310786e+006 1.009468841335e+006 1.009236505693e+006 1.009300939712e+006 1.010005813237e+006 1.009472368619e+006 1.009761381270e+006 1.010108143949e+006 1.009207316653e+006 1.009395926259e+006 1.009716883960e+006 1.009277810039e+006 1.009395201610e+006 1.009801238215e+006 1.009118409965e+006 1.009237600522e+006 1.009215114190e+006 1.010096101129e+006 1.010221989056e+006 1.009015918479e+006 1.009094827486e+006 1.009214381250e+006 1.009785449717e+006 1.009459525497e+006 1.009497738856e+006 1.010183099776e+006 1.009935791932e+006 1.009530860859e+006 1.009602009255e+006 1.009893498696e+006 1.010004250541e+006 1.009723883756e+006 1.009649704612e+006 1.009221967349e+006 1.009387668494e+006 1.009102126418e+006 1.010209527296e+006 1.008929063037e+006 1.009779169688e+006 1.009667732566e+006 1.009324977079e+006 1.009093878545e+006 1.009829529681e+006 1.009051719461e+006 1.008954824610e+006 1.009358557544e+006 1.009919474154e+006 1.009423359867e+006 1.009788560681e+006 1.009623122554e+006 1.009393502943e+006 1.010000646237e+006 1.009211296997e+006 1.008898270520e+006 1.010031432473e+006 1.009380567138e+006 1.010105184573e+006 1.009162931934e+006 1.009873323306e+006 1.009496084599e+006 1.008987803671e+006 1.009881222516e+006 1.009302270375e+006 1.009945338110e+006 1.009095873348e+006 1.009467993694e+006 1.009697835132e+006 1.009031366624e+006 1.009071073159e+006 1.009762502755e+006 1.002056673993e+006 1.001995990156e+006 1.001501673274e+006 1.009345269320e+006 1.009532693134e+006 1.010062391185e+006 1.009821363825e+006 1.009187230365e+006 1.009986202779e+006 1.009361652980e+006 1.009055286680e+006 1.009893612097e+006 1.009372882577e+006 1.007197256762e+006 1.007209375102e+006 1.009532068848e+006 1.009996482701e+006 1.009615086162e+006 1.009368226937e+006 1.009776361696e+006 1.009031444313e+006 1.009782542708e+006 1.009191213149e+006 1.009828722268e+006 1.009413163560e+006 1.009635441982e+006 1.009374358149e+006 1.009292423416e+006 1.004666944241e+006 1.004042629287e+006 1.009814340446e+006 1.009012374190e+006 1.009102155957e+006 1.009663431228e+006 1.009139213366e+006 1.009388780418e+006 1.009121692209e+006 1.009170066879e+006 1.009117734413e+006 1.009164909772e+006 1.009068718603e+006 1.009272168419e+006 1.009051010352e+006 1.008972543721e+006 1.008889431760e+006 1.009097652099e+006 1.009161204274e+006 1.009096671589e+006 1.009857113337e+006 1.009384759167e+006 1.009346682122e+006 1.009547180090e+006 1.009389860418e+006 1.009039727778e+006 1.009953950804e+006 1.010070016510e+006 1.009006175383e+006 1.008915995359e+006 1.010172143715e+006 1.008990183045e+006 1.009201472822e+006 1.009782959900e+006 1.002987335277e+006 1.002570654678e+006 1.009732717992e+006 1.010160138178e+006 1.009746603038e+006 1.009926864880e+006 1.009808083284e+006 1.009678449476e+006 1.009176231416e+006 1.006714662840e+006 1.006708259183e+006 1.009764659800e+006 1.009775343194e+006 1.009116219491e+006 1.009718442992e+006 1.009678804121e+006 1.009818842769e+006 1.010023210792e+006 1.009674683279e+006 1.009024524040e+006 1.000949019288e+006 1.000786916219e+006 1.009790553252e+006 1.010019394473e+006 1.009971098417e+006 1.009263823847e+006 1.009846997405e+006 1.009750364149e+006 1.009940870267e+006 1.009578006019e+006 1.008948932210e+006 1.009119682086e+006 1.009136383410e+006 1.009417458684e+006 1.009249922930e+006 1.009107698663e+006 1.009437073467e+006 1.009188191499e+006 1.009191077361e+006 1.009217820440e+006 1.009037877421e+006 1.009184393801e+006 1.009202914279e+006 1.009348250050e+006 1.009137108075e+006 1.009319419107e+006 1.009136855394e+006 1.009370024178e+006 1.009249053405e+006 1.009397192141e+006 1.009415818976e+006 1.009396545686e+006 1.009408193239e+006 1.009292880371e+006 1.009255683740e+006 1.009111798659e+006 1.009257653291e+006 1.009115690547e+006 1.009640239990e+006 1.009359119930e+006 1.009525643659e+006 1.009364025052e+006 1.009532101542e+006 1.009164805108e+006 1.009079084742e+006 1.009189595825e+006 1.009143419882e+006 1.009085094924e+006 1.009164306958e+006 1.009183794289e+006 1.009112433173e+006 1.009289135755e+006 1.009431701206e+006 1.009292073938e+006 1.009460727019e+006 1.009109612331e+006 1.009191892562e+006 1.009102745271e+006 1.009183363284e+006 1.009438705319e+006 1.009393037385e+006 1.009439099409e+006 1.009391671258e+006 1.009299728596e+006 1.009073259420e+006 1.009491039985e+006 1.009514102692e+006 1.009277425256e+006 1.009282387037e+006 1.009075050389e+006 1.009301072395e+006 1.009485652163e+006 1.009513854692e+006 1.009278905279e+006 1.009284317503e+006 1.009204689367e+006 1.009184994490e+006 1.009354363063e+006 1.009202704330e+006 1.009174947420e+006 1.009356603879e+006 1.009652546190e+006 1.009466504102e+006 1.009548491700e+006 1.009644407298e+006 1.009449216006e+006 1.009547591536e+006 1.009051022955e+006 1.009442285813e+006 1.009063737905e+006 1.009056016954e+006 1.009493398270e+006 1.009087110758e+006 1.009728906047e+006 1.009120536557e+006 1.009699727863e+006 1.009140353363e+006 1.009198961358e+006 1.009591850729e+006 1.009201558121e+006 1.009582813404e+006 1.009059841854e+006 1.009199571211e+006 1.009164107845e+006 1.009061491672e+006 1.009199503694e+006 1.009164428517e+006 1.009066314795e+006 1.009313028802e+006 1.009065201162e+006 1.009313063218e+006 1.009428330005e+006 1.009433256953e+006 1.009386221603e+006 1.009383738335e+006 1.009064575569e+006 1.009049865405e+006 1.009199815038e+006 1.009736300893e+006 1.009184199965e+006 1.009505171502e+006 1.009578897642e+006 1.009554219570e+006 1.009203799022e+006 1.009214504078e+006 1.009198669605e+006 1.009625177725e+006 1.009243163304e+006 1.009621852274e+006 1.009235808103e+006 1.009424037996e+006 1.009109812032e+006 1.009404698980e+006 1.009096406886e+006 1.009120097105e+006 1.009827795948e+006 1.009229062287e+006 1.009036326982e+006 1.009846089925e+006 1.009820264997e+006 1.009733593338e+006 1.009602460760e+006 1.009512657217e+006 1.009639272071e+006 1.009610061600e+006 1.009573938639e+006 1.009196192097e+006 1.009423545315e+006 1.009054935004e+006 1.009450575246e+006 1.009245494750e+006 1.009126867507e+006 1.009259806744e+006 1.009234228989e+006 1.009216277969e+006 1.009842888074e+006 1.009922389339e+006 1.009330316929e+006 1.009730668156e+006 1.009365653886e+006 1.009485026911e+006 1.009724497306e+006 1.000000000000e+006 1.000000000000e+006 1.000817853040e+006 1.009768457122e+006 1.010056472139e+006 1.009324128902e+006 1.009878615348e+006 1.009872072114e+006 1.009132695439e+006 1.009985253599e+006 1.009483817958e+006 1.009948079538e+006 1.009260089251e+006 1.009150492421e+006 1.009130045717e+006 1.009111412382e+006 1.009381052943e+006 1.009256626835e+006 1.009795165366e+006 1.010002948176e+006 1.009478516051e+006 1.009183750383e+006 1.009234515090e+006 1.009816882958e+006 1.009733535031e+006 1.009792938010e+006 1.006800844693e+006 1.006798248415e+006 1.010085823778e+006 1.008971522874e+006 1.008971886046e+006 1.009302740432e+006 1.009394819650e+006 1.009886313502e+006 1.009205733642e+006 1.009210098578e+006 1.009010854274e+006 1.009436339173e+006 1.009517437879e+006 1.009204263780e+006 1.009443456609e+006 1.009188413081e+006 1.002075985062e+006 1.001455388897e+006 1.009968655686e+006 1.009687285544e+006 1.002335219582e+006 1.009961136731e+006 1.009475988873e+006 1.009975035408e+006 1.009551340242e+006 1.009521271509e+006 1.001638058753e+006 1.010021561019e+006 1.009912890944e+006 1.009078614334e+006 1.009276277467e+006 1.010021504209e+006 1.009122371920e+006 1.009120852457e+006 1.010056029528e+006 1.009663899850e+006 1.009536411106e+006 1.009393662587e+006 1.009952646607e+006 1.009808204768e+006 1.009117010478e+006 1.009457437262e+006 1.009555955950e+006 1.009677855117e+006 1.009340545956e+006 1.009256126763e+006 1.009993927417e+006 1.009729372568e+006 1.010007043313e+006 1.009967104427e+006 1.009689165581e+006 1.009064352084e+006 1.009122030484e+006 1.002396066121e+006 1.009773221315e+006 1.002307510935e+006 1.009263966618e+006 1.009017515308e+006 1.009464571486e+006 1.009250697291e+006 1.009680527063e+006 1.010049379363e+006 1.009694127822e+006 1.009798903066e+006 1.009948192649e+006 1.009927073565e+006 1.009957571363e+006 1.010007979644e+006 1.009905685102e+006 1.002181390511e+006 1.002422122890e+006 1.001410770988e+006 1.002765083775e+006 1.009773423916e+006 1.002521650202e+006 1.002856420309e+006 1.009123836350e+006 1.009767544665e+006 1.009901300370e+006 1.009965507523e+006 1.002566493360e+006 1.009361952650e+006 1.009390553830e+006 1.008978601038e+006 1.008978362730e+006 1.009249258230e+006 1.009245817088e+006 1.009995075230e+006 1.009782724091e+006 1.009014209700e+006 1.009017262575e+006 1.008980323857e+006 1.008997845180e+006 1.009769170705e+006 1.009872523507e+006 
        </DataArray>
        <DataArray type="Float64" Name="MEAN_PRESSURE" format="ascii">