<?xml version="1.0"?>
<VTKFile type="UnstructuredGrid" version="0.1" byte_order="LittleEndian">
  <UnstructuredGrid>
    <Piece NumberOfPoints="963" NumberOfCells="1758">
      <Points>
        <DataArray type="Float64" NumberOfComponents="3" format="ascii">
          1.600262034769e+002 1.257989505921e+001 0.000000000000e+000
          1.635346199106e+002 2.000000000000e+001 0.000000000000e+000
          1.554515002484e+002 2.000000000000e+001 0.000000000000e+000
          3.459306441575e+000 1.667621982453e+001 0.000000000000e+000
          3.062266634850e+000 1.705413688405e+001 0.000000000000e+000
          2.873380769063e+000 1.650527725632e+001 0.000000000000e+000
          1.514088444034e+000 1.865189448105e+001 0.000000000000e+000
          1.967902677551e+000 1.834103489750e+001 0.000000000000e+000
          2.034564522234e+000 1.890806711991e+001 0.000000000000e+000
          2.478275273162e+000 1.702762299110e+001 0.000000000000e+000
          2.952621433467e+000 1.774357373580e+001 0.000000000000e+000
          2.237893542067e+000 1.782457469610e+001 0.000000000000e+000
          3.313583922780e+000 3.274674552047e+000 0.000000000000e+000
          2.561432712787e+000 3.156040447793e+000 0.000000000000e+000
          3.047531989640e+000 2.714594415171e+000 0.000000000000e+000
          2.750804692284e+000 3.936058190693e+000 0.000000000000e+000
          2.599039179818e+000 2.451529939148e+000 0.000000000000e+000
          3.139686649742e+000 2.186924052088e+000 0.000000000000e+000
          1.919984553221e+000 3.358010194268e+000 0.000000000000e+000
          1.960900304591e+000 2.773319745251e+000 0.000000000000e+000
          1.894565400391e+000 1.733316857565e+001 0.000000000000e+000
          0.000000000000e+000 1.538461538461e+001 0.000000000000e+000
          5.816229249735e-001 1.567919247147e+001 0.000000000000e+000
          0.000000000000e+000 1.589743589743e+001 0.000000000000e+000
          9.766405669483e+001 2.000000000000e+001 0.000000000000e+000
          1.010672711393e+002 1.500000000000e+001 0.000000000000e+000
          1.029329279907e+002 2.000000000000e+001 0.000000000000e+000
          9.588503785413e+001 1.500000000000e+001 0.000000000000e+000
          1.039231647117e+002 1.000000000000e+001 0.000000000000e+000
          9.860830811271e+001 1.000000000000e+001 0.000000000000e+000
          1.010672711397e+002 5.000000000000e+000 0.000000000000e+000
          9.766405669557e+001 0.000000000000e+000 0.000000000000e+000
          1.029329279915e+002 0.000000000000e+000 0.000000000000e+000
          9.588503785449e+001 5.000000000000e+000 0.000000000000e+000
          7.892434178002e+001 2.000000000000e+001 0.000000000000e+000
          8.173808356948e+001 1.500000000000e+001 0.000000000000e+000
          8.328058896910e+001 2.000000000000e+001 0.000000000000e+000
          7.679274808893e+001 1.514423393202e+001 0.000000000000e+000
          7.970503892166e+001 1.000000000000e+001 0.000000000000e+000
          8.409930620613e+001 1.000000000000e+001 0.000000000000e+000
          8.173808356980e+001 5.000000000000e+000 0.000000000000e+000
          7.892434178065e+001 0.000000000000e+000 0.000000000000e+000
          8.328058896976e+001 0.000000000000e+000 0.000000000000e+000
          7.679274808925e+001 4.855766067979e+000 0.000000000000e+000
          1.084583939765e+002 2.000000000000e+001 0.000000000000e+000
          1.122011528880e+002 1.500000000000e+001 0.000000000000e+000
          1.142529496098e+002 2.000000000000e+001 0.000000000000e+000
          1.065018792644e+002 1.500000000000e+001 0.000000000000e+000
          1.153419838410e+002 1.000000000000e+001 0.000000000000e+000
          1.094968549120e+002 1.000000000000e+001 0.000000000000e+000
          1.122011528884e+002 5.000000000000e+000 0.000000000000e+000
          1.084583939773e+002 0.000000000000e+000 0.000000000000e+000
          1.142529496106e+002 0.000000000000e+000 0.000000000000e+000
          1.065018792648e+002 5.000000000000e+000 0.000000000000e+000
          1.181779812237e+002 1.500000000000e+001 0.000000000000e+000
          1.203297004775e+002 2.000000000000e+001 0.000000000000e+000
          1.214717707847e+002 1.000000000000e+001 0.000000000000e+000
          1.181779812242e+002 5.000000000000e+000 0.000000000000e+000
          1.203297004784e+002 0.000000000000e+000 0.000000000000e+000
          7.477039199538e+001 2.000000000000e+001 0.000000000000e+000
          7.551483469771e+001 1.000000000000e+001 0.000000000000e+000
          7.296959467356e+001 1.385646386579e+001 0.000000000000e+000
          7.477039199599e+001 0.000000000000e+000 0.000000000000e+000
          7.296959467379e+001 6.143536134207e+000 0.000000000000e+000
          6.918477198508e+001 1.366665532880e+001 0.000000000000e+000
          6.746477463053e+001 1.000000000000e+001 0.000000000000e+000
          7.151921701478e+001 1.000000000000e+001 0.000000000000e+000
          6.918477198529e+001 6.333344671202e+000 0.000000000000e+000
          9.263986346551e+001 2.000000000000e+001 0.000000000000e+000
          9.094345943471e+001 1.500000000000e+001 0.000000000000e+000
          9.354026529380e+001 1.000000000000e+001 0.000000000000e+000
          9.263986346623e+001 0.000000000000e+000 0.000000000000e+000
          9.094345943506e+001 5.000000000000e+000 0.000000000000e+000
          1.244344522558e+002 1.503312574389e+001 0.000000000000e+000
          1.267023895482e+002 2.000000000000e+001 0.000000000000e+000
          1.285510028831e+002 1.020485663255e+001 0.000000000000e+000
          1.244344522563e+002 5.033125743893e+000 0.000000000000e+000
          1.267023895491e+002 0.000000000000e+000 0.000000000000e+000
          8.623136018348e+001 1.500000000000e+001 0.000000000000e+000
          8.784898578901e+001 2.000000000000e+001 0.000000000000e+000
          8.870757443665e+001 1.000000000000e+001 0.000000000000e+000
          8.623136018382e+001 5.000000000000e+000 0.000000000000e+000
          8.784898578969e+001 0.000000000000e+000 0.000000000000e+000
          4.872472752737e+000 0.000000000000e+000 0.000000000000e+000
          4.204479229380e+000 6.412840757122e-001 0.000000000000e+000
          4.157376851380e+000 0.000000000000e+000 0.000000000000e+000
          5.192892237051e+000 7.280355562789e-001 0.000000000000e+000
          1.306630304579e+000 6.212843344151e-001 0.000000000000e+000
          1.050228457081e+000 0.000000000000e+000 0.000000000000e+000
          1.614006202528e+000 0.000000000000e+000 0.000000000000e+000
          1.266763055794e+001 1.554696422866e+001 0.000000000000e+000
          1.263589100638e+001 1.657720348306e+001 0.000000000000e+000
          1.174268578662e+001 1.633018318031e+001 0.000000000000e+000
          6.588835695415e+000 7.505681085529e+000 0.000000000000e+000
          6.456871838389e+000 6.658671683861e+000 0.000000000000e+000
          7.208099140752e+000 7.038822846307e+000 0.000000000000e+000
          4.412623338166e+000 9.138856431549e+000 0.000000000000e+000
          4.024185797397e+000 8.708923235630e+000 0.000000000000e+000
          4.601447447338e+000 8.507292699647e+000 0.000000000000e+000
          5.325995059827e-001 6.308307298123e+000 0.000000000000e+000
          0.000000000000e+000 6.666666666655e+000 0.000000000000e+000
          0.000000000000e+000 6.153846153835e+000 0.000000000000e+000
          3.986461521768e+000 8.146114708182e+000 0.000000000000e+000
          2.411603373059e+000 6.510912162016e+000 0.000000000000e+000
          1.807525763324e+000 6.938080373464e+000 0.000000000000e+000
          1.686779352680e+000 6.178928843543e+000 0.000000000000e+000
          2.510760620997e+000 7.229076682239e+000 0.000000000000e+000
          3.166991983438e+000 6.906135870389e+000 0.000000000000e+000
          3.452788915829e+000 6.276851216781e+000 0.000000000000e+000
          3.340122000742e+000 5.656365440432e+000 0.000000000000e+000
          4.047936562877e+000 5.873561587395e+000 0.000000000000e+000
          1.802463974828e+000 1.292744708026e+001 0.000000000000e+000
          1.383967161336e+000 1.330299552906e+001 0.000000000000e+000
          1.329690820161e+000 1.266495373033e+001 0.000000000000e+000
          2.267922292389e+000 1.431116835808e+001 0.000000000000e+000
          2.854613987538e+000 1.466581611369e+001 0.000000000000e+000
          2.339869278674e+000 1.493776402241e+001 0.000000000000e+000
          4.690956878046e+000 3.115726773737e+000 0.000000000000e+000
          4.014773718330e+000 2.850429494150e+000 0.000000000000e+000
          4.643493383296e+000 2.293565471327e+000 0.000000000000e+000
          5.186083944243e+000 1.661927139510e+000 0.000000000000e+000
          5.452965511439e+000 2.679881546544e+000 0.000000000000e+000
          5.360460104304e+000 3.539902157655e+000 0.000000000000e+000
          6.197986304192e+000 3.115706366113e+000 0.000000000000e+000
          7.929356606585e-001 1.634705420870e+001 0.000000000000e+000
          1.222819867503e+000 1.599517159419e+001 0.000000000000e+000
          1.215723647926e+000 1.546209040954e+001 0.000000000000e+000
          1.770601276021e+000 1.521217632514e+001 0.000000000000e+000
          1.242830150061e+000 1.493919370237e+001 0.000000000000e+000
          1.166444124506e+000 4.610115997312e+000 0.000000000000e+000
          1.851620547934e+000 4.486892013458e+000 0.000000000000e+000
          1.494152702314e+000 5.145235789232e+000 0.000000000000e+000
          1.353088107040e+000 4.090803091641e+000 0.000000000000e+000
          3.802567455935e+000 5.084697985980e+000 0.000000000000e+000
          1.014840185783e+000 5.494768572296e+000 0.000000000000e+000
          8.831064584820e-001 5.109311190608e+000 0.000000000000e+000
          1.727903958959e+000 1.618384478933e+001 0.000000000000e+000
          1.343261525342e+000 1.651800241408e+001 0.000000000000e+000
          3.308120627291e+000 8.593311644828e+000 0.000000000000e+000
[...]
      <PointData Scalars="LIQUID_PRESSURE">
        <DataArray type="Float64" Name="LIQUID_PRESSURE" format="ascii">
          1.028576883027e+006 1.026068459102e+006 1.031847755261e+006 1.130375104116e+006 1.130362117786e+006 1.130387290625e+006 1.130413743557e+006 1.130633178041e+006 1.130645748568e+006 1.130566030896e+006 1.130363062015e+006 1.130626343076e+006 1.130301540376e+006 1.130510399975e+006 1.130330531925e+006 1.130411884803e+006 1.130497853659e+006 1.130314037582e+006 1.130629348870e+006 1.130650305348e+006 1.130605129946e+006 1.130154027027e+006 1.130055857055e+006 1.130144477076e+006 1.073184539968e+006 1.070748793587e+006 1.069413604152e+006 1.074457900440e+006 1.068704949417e+006 1.072508700102e+006 1.070748790514e+006 1.073184539262e+006 1.069413596678e+006 1.074457903485e+006 1.086601117416e+006 1.084586148578e+006 1.083481575628e+006 1.088127683391e+006 1.086041991917e+006 1.082895365964e+006 1.084586114106e+006 1.086601037234e+006 1.083481576178e+006 1.088127607242e+006 1.065459578826e+006 1.062781547292e+006 1.061313501589e+006 1.066859601128e+006 1.060534347005e+006 1.064716536765e+006 1.062781539603e+006 1.065459563171e+006 1.061313497956e+006 1.066859594764e+006 1.058505360004e+006 1.056966033758e+006 1.056149003237e+006 1.058505371527e+006 1.056966074333e+006 1.089576090764e+006 1.089042917987e+006 1.090865985798e+006 1.089576018977e+006 1.090865942221e+006 1.093577230660e+006 1.094809767313e+006 1.091904972737e+006 1.093577189036e+006 1.076780838007e+006 1.077995237653e+006 1.076136309166e+006 1.076780854132e+006 1.077995252621e+006 1.054029687317e+006 1.052407405744e+006 1.051085111483e+006 1.054029691783e+006 1.052407433702e+006 1.081368769480e+006 1.080210609794e+006 1.079595934482e+006 1.081368794230e+006 1.080210631091e+006 1.130313139221e+006 1.130547155516e+006 1.130522097009e+006 1.130178937147e+006 1.130299325616e+006 1.130155425634e+006 1.130510288187e+006 1.129035373894e+006 1.129009343775e+006 1.129184722189e+006 1.130236264355e+006 1.130268162660e+006 1.129938118352e+006 1.130464870009e+006 1.130495894022e+006 1.130388119018e+006 1.130018008640e+006 1.130080996461e+006 1.130072151680e+006 1.130488017065e+006 1.130546227537e+006 1.130553100192e+006 1.130515258695e+006 1.130498728215e+006 1.130320902737e+006 1.130357444111e+006 1.130312671613e+006 1.130493338892e+006 1.130554888135e+006 1.130333658919e+006 1.130296834969e+006 1.130599292554e+006 1.130375543776e+006 1.130574961538e+006 1.130313298061e+006 1.130462254448e+006 1.130352355660e+006 1.130162104838e+006 1.130121388213e+006 1.130111302931e+006 1.130268013417e+006 1.130059894486e+006 1.130196315038e+006 1.130202771204e+006 1.130542775566e+006 1.130225436989e+006 1.130189483966e+006 1.130598717495e+006 1.130403498268e+006 1.130299849409e+006 1.130425063298e+006 1.130113606581e+006 1.130068143483e+006 1.130505260447e+006 1.130268083550e+006 1.130336544739e+006 1.130452848838e+006 1.130322868669e+006 1.130083175337e+006 1.130078839126e+006 1.130265841033e+006 1.130087463706e+006 1.130100796795e+006 1.130346994971e+006 1.130347246541e+006 1.130090547320e+006 1.130368554583e+006 1.130488791691e+006 1.130104028611e+006 1.130143347342e+006 1.130247732107e+006 1.130505089152e+006 1.130637305320e+006 1.130481578091e+006 1.130322410184e+006 1.130208110864e+006 1.130169586951e+006 1.130226522501e+006 1.130388365845e+006 1.130324272306e+006 1.130081163508e+006 1.130051817746e+006 1.130517324858e+006 1.130140607378e+006 1.130105769608e+006 1.130138022756e+006 1.130578252512e+006 1.130478109200e+006 1.130545352446e+006 1.130382849617e+006 1.130152366711e+006 1.130468884287e+006 1.130351632764e+006 1.130432349929e+006 1.130087934259e+006 1.130110318189e+006 1.130122974959e+006 1.130594963975e+006 1.130568183948e+006 1.130341348026e+006 1.130557586306e+006 1.130069570144e+006 1.130067988118e+006 1.130331156096e+006 1.130353970279e+006 1.130540930258e+006 1.130611204334e+006 1.130236895868e+006 1.130138964314e+006 1.130607975847e+006 1.130604158551e+006 1.130079861123e+006 1.130584675711e+006 1.130384597238e+006 1.130523012501e+006 1.130393572385e+006 1.130394533398e+006 1.130528529830e+006 1.130649324696e+006 1.130534119760e+006 1.130230255890e+006 1.130097813567e+006 1.130235966082e+006 1.130476223596e+006 1.130338747799e+006 1.130312028071e+006 1.130324071577e+006 1.130115415736e+006 1.130460218285e+006 1.130631398356e+006 1.096316751259e+006 1.096316817327e+006 1.130464782055e+006 1.130615232859e+006 1.130047216684e+006 1.129923623608e+006 1.129880986366e+006 1.129883814637e+006 1.130464681549e+006 1.130495536550e+006 1.130125285738e+006 1.130406320725e+006 1.130088010060e+006 1.130574012801e+006 1.130527058826e+006 1.130118454430e+006 1.130615197518e+006 1.130164432067e+006 1.130201532528e+006 1.130431546372e+006 1.130358285056e+006 1.130035934620e+006 1.130424653525e+006 1.130579021250e+006 1.130589743310e+006 1.130327668763e+006 1.130647967914e+006 1.130474632285e+006 1.130027770606e+006 1.130033008624e+006 1.130098690744e+006 1.130113152609e+006 1.130098785707e+006 1.130097633589e+006 1.130034307291e+006 1.130068439006e+006 1.130046181475e+006 1.130119498782e+006 1.130035591935e+006 1.130081642582e+006 1.130151675322e+006 1.130178429644e+006 1.130180786357e+006 1.130081120505e+006 1.130132169489e+006 1.130078124204e+006 1.130126939119e+006 1.130128796139e+006 1.130168604402e+006 1.130175131521e+006 1.100155776581e+006 1.098184537243e+006 1.097697827859e+006 1.101115603909e+006 1.097593734808e+006 1.100061028685e+006 1.098184726870e+006 1.100155883133e+006 1.097698000646e+006 1.101115674907e+006 1.097593908467e+006 1.100061123489e+006 1.105207513215e+006 1.103498018098e+006 1.102478804702e+006 1.106228823622e+006 1.102382001226e+006 1.105046345403e+006 1.103498183170e+006 1.105207615692e+006 1.102478962438e+006 1.106228910432e+006 1.102382111940e+006 1.105046473569e+006 1.119537734608e+006 1.118676445542e+006 1.118065743339e+006 1.120078997282e+006 1.117931265482e+006 1.119407152029e+006 1.118676220735e+006 1.119537411914e+006 1.118065612119e+006 1.120078577464e+006 1.117931138691e+006 1.119406886607e+006 1.116419356497e+006 1.115318413724e+006 1.114506192402e+006 1.117119918133e+006 1.114440876005e+006 1.116276293039e+006 1.115318413882e+006 1.116419414126e+006 1.114506174017e+006 1.117119855119e+006 1.114440845575e+006 1.116276250459e+006 1.122965636854e+006 1.122452011886e+006 1.121878369868e+006 1.123407329476e+006 1.122451623537e+006 1.122965839916e+006 1.121877903444e+006 1.123407789925e+006 1.112429300955e+006 1.111050420587e+006 1.110067336070e+006 1.113245731802e+006 1.110082731353e+006 1.112434005330e+006 1.111050368002e+006 1.112429198906e+006 1.110067287548e+006 1.113245701032e+006 1.110082715507e+006 1.112434006487e+006 1.107770958696e+006 1.108713810450e+006 1.107670160802e+006 1.107771005528e+006 1.108713848690e+006 1.107670208696e+006 1.120878094111e+006 1.121523607042e+006 1.120699804915e+006 1.120877636416e+006 1.121522988821e+006 1.120699307223e+006 1.121723324993e+006 1.121722547083e+006 1.106598614394e+006 1.108220731446e+006 1.105631472998e+006 1.109219229246e+006 1.106598641263e+006 1.109219198640e+006 1.117327089011e+006 1.118306703375e+006 1.116744705475e+006 1.118840790415e+006 1.117327029546e+006 1.118840673883e+006 1.103884362762e+006 1.103034844215e+006 1.103884429725e+006 1.122702176072e+006 1.122973177329e+006 1.122974141278e+006 1.122702302620e+006 1.110756982356e+006 1.111567205475e+006 1.111567246201e+006 1.115637511488e+006 1.115052213405e+006 1.115637484983e+006 1.113811750802e+006 1.113073398600e+006 1.113811768084e+006 1.121457891433e+006 1.121458071170e+006 1.119738631324e+006 1.120261785872e+006 1.120261628775e+006 1.101528833254e+006 1.100691907635e+006 1.101528896301e+006 1.121242659144e+006 1.098861239536e+006 1.097509487622e+006 1.098861334872e+006 1.095118585071e+006 1.095550647588e+006 1.095118469122e+006 1.095550546319e+006 1.129834832082e+006 1.129806798310e+006 1.129926980025e+006 1.129849431354e+006 1.130401637545e+006 1.130476944156e+006 1.130627829558e+006 1.130409621711e+006 1.130623915822e+006 1.130319294622e+006 1.130208764139e+006 1.130503434440e+006 1.130036960961e+006 1.130186135267e+006 1.034031283981e+006 1.037359133967e+006 1.031847774054e+006 1.130247684391e+006 1.129926504334e+006 1.130077396202e+006 1.130232101344e+006 1.130490953266e+006 1.130518536369e+006 1.130126512756e+006 1.130516050517e+006 1.130480088825e+006 1.130623676210e+006 1.130542136810e+006 1.129902265265e+006 1.129912670360e+006 1.129865880880e+006 1.130615299598e+006 1.130381449134e+006 1.130093856285e+006 1.130047629526e+006 1.130111276481e+006 1.129873924982e+006 1.129905636091e+006 1.129886400956e+006 1.130085165164e+006 1.129888469826e+006 1.130228820579e+006 1.129925975462e+006 1.129682407755e+006 1.129888878056e+006 1.129885237423e+006 1.130011489649e+006 1.130520125377e+006 1.130485203249e+006 1.130375847709e+006 1.129936752557e+006 1.129843201001e+006 1.129602020653e+006 1.129484796503e+006 1.130422995629e+006 1.130417234515e+006 1.129309184596e+006 1.129201839661e+006 1.129464886485e+006 1.130076444879e+006 1.130228217146e+006 1.129073109879e+006 1.129400395753e+006 1.129147043303e+006 1.130487165884e+006 1.130126927293e+006 1.130223481190e+006 1.128748723451e+006 1.128827319321e+006 1.130509825823e+006 1.130214922459e+006 1.129918080440e+006 1.130213964959e+006 1.129801313944e+006 1.129819070822e+006 1.129883790373e+006 1.129888822812e+006 1.130146483343e+006 1.129484616805e+006 1.129522210616e+006 1.129252438467e+006 1.129019938709e+006 1.129033038972e+006 1.129700127570e+006 1.129070366618e+006 1.129139561366e+006 1.129210650645e+006 1.128954418047e+006 1.130534791547e+006 1.130536785827e+006 1.129449945234e+006 1.129563789052e+006 1.130126784998e+006 1.130358770010e+006 1.130273776973e+006 1.130397106916e+006 1.130126910772e+006 1.130094734848e+006 1.130476378522e+006 1.130630865697e+006 1.130219254237e+006 1.130120019528e+006 1.129891706931e+006 1.129774995791e+006 1.129602017297e+006 1.129844427703e+006 1.129814231942e+006 1.129585840306e+006 1.129874667821e+006 1.130251227843e+006 1.130248807988e+006 1.130134307112e+006 1.129892165305e+006 1.130278027052e+006 1.130193558204e+006 1.130220836349e+006 1.130104345979e+006 1.129462423438e+006 1.129386659791e+006 1.129480968741e+006 1.130522360233e+006 1.130452838239e+006 1.130091404144e+006 1.129802784941e+006 1.130374694261e+006 1.129418301512e+006 1.129491011592e+006 1.130091968064e+006 1.130031770092e+006 1.130418251947e+006 1.130207111785e+006 1.130438076191e+006 1.130139909756e+006 1.130333163335e+006 1.129847269542e+006 1.129888793070e+006 1.130618598052e+006 1.130361142736e+006 1.130348800712e+006 1.130538353777e+006 1.129957145588e+006 1.129908170146e+006 1.129943386407e+006 1.130205152184e+006 1.130199787098e+006 1.130526444553e+006 1.130570905938e+006 1.129521684122e+006 1.129610981773e+006 1.129718941526e+006 1.129495566629e+006 1.130193970465e+006 1.129379614466e+006 1.129019022122e+006 1.129132480607e+006 1.130152671551e+006 1.130517340210e+006 1.130637879725e+006 1.129781041688e+006 1.129454800248e+006 1.129443285849e+006 1.129474827812e+006 1.129612361476e+006 1.129613001127e+006 1.130637653969e+006 1.130603535438e+006 1.130430442531e+006 1.129496983406e+006 1.129447537337e+006 1.130171905521e+006 1.130244383897e+006 1.130243364872e+006 1.129476185343e+006 1.129565688592e+006 1.129463667021e+006 1.130628431938e+006 1.130136436741e+006 1.130137223110e+006 1.130514737672e+006 1.130454316058e+006 1.129476869225e+006 1.129773025462e+006 1.130149657709e+006 1.130154496824e+006 1.130036599288e+006 1.129868725662e+006 1.129634187387e+006 1.129757376962e+006 1.130423428473e+006 1.129932240024e+006 1.130415082267e+006 1.129464764613e+006 1.130078706685e+006 1.130561834925e+006 1.130385535442e+006 1.130593325435e+006 1.129848601722e+006 1.129408276488e+006 1.130387968963e+006 1.130335182662e+006 1.129853771714e+006 1.129196995495e+006 1.129491668456e+006 1.130326106365e+006 1.130030157258e+006 1.130077742218e+006 1.129469093863e+006 1.129428766538e+006 1.129458269406e+006 1.020008223329e+006 1.017508439803e+006 1.013653101119e+006 1.129850455956e+006 1.130046872225e+006 1.130566714774e+006 1.130491597551e+006 1.130362905962e+006 1.130391602771e+006 1.129864341977e+006 1.130375832785e+006 1.130342000494e+006 1.130177712376e+006 1.092950879834e+006 1.092950952298e+006 1.130040300278e+006 1.130097730885e+006 1.130460849221e+006 1.130203975202e+006 1.129681737962e+006 1.130149162467e+006 1.129797489645e+006 1.130091319477e+006 1.130106504032e+006 1.130421411670e+006 1.129487585098e+006 1.129500232053e+006 1.129900971807e+006 1.028398712586e+006 1.026068537599e+006 1.130464005587e+006 1.130121943801e+006 1.130161789064e+006 1.130212367363e+006 1.129845528793e+006 1.130024132914e+006 1.123963801068e+006 1.123808351724e+006 1.123963133512e+006 1.123810416570e+006 1.130338963102e+006 1.130055119694e+006 1.129827506113e+006 1.130117104695e+006 1.123413964327e+006 1.123142202307e+006 1.122597665328e+006 1.123140225342e+006 1.129416825377e+006 1.129166237726e+006 1.130364708434e+006 1.129467035030e+006 1.130453547900e+006 1.130350222627e+006 1.130533939105e+006 1.130474178640e+006 1.130122790835e+006 1.130071750931e+006 1.130621857931e+006 1.130211636208e+006 1.129068706053e+006 1.129390613422e+006 1.023699764660e+006 1.020008262249e+006 1.130110848949e+006 1.130645393062e+006 1.130495504688e+006 1.130514979738e+006 1.129914678099e+006 1.130091173863e+006 1.129811576065e+006 1.092413205294e+006 1.092413139415e+006 1.128984903780e+006 1.130203750545e+006 1.128561409384e+006 1.128513345909e+006 1.128341374710e+006 1.129465225639e+006 1.130491116660e+006 1.130484066038e+006 1.129023235936e+006 1.008273323677e+006 1.006988705297e+006 1.128998642331e+006 1.130089171331e+006 1.130094773326e+006 1.129170370637e+006 1.130127701951e+006 1.130126777135e+006 1.130163351777e+006 1.129248795326e+006 1.124628278007e+006 1.124177232759e+006 1.124008482055e+006 1.125157057723e+006 1.124974273029e+006 1.124168640257e+006 1.125162411931e+006 1.124952674378e+006 1.125442536284e+006 1.125820252903e+006 1.125531863162e+006 1.125852074146e+006 1.125592335205e+006 1.126066180098e+006 1.126335658741e+006 1.126220882391e+006 1.126330609771e+006 1.126199111223e+006 1.126564093946e+006 1.126886394218e+006 1.126798965518e+006 1.126885892747e+006 1.126798430793e+006 1.127071764417e+006 1.127384507356e+006 1.127207113300e+006 1.127379699381e+006 1.127203555646e+006 1.127694388260e+006 1.127877874190e+006 1.127737849708e+006 1.127865996945e+006 1.127725977242e+006 1.124508624961e+006 1.124551886478e+006 1.125038258376e+006 1.125234800496e+006 1.124549643439e+006 1.124506202046e+006 1.125027000211e+006 1.125226037449e+006 1.125782315575e+006 1.126034457208e+006 1.125793160528e+006 1.126023458070e+006 1.126433449005e+006 1.126609432938e+006 1.126438789530e+006 1.126610381800e+006 1.126997123294e+006 1.127110296180e+006 1.127003038563e+006 1.127110039508e+006 1.126269696260e+006 1.126687736682e+006 1.126004625059e+006 1.126973440436e+006 1.125867046166e+006 1.126677171015e+006 1.126684950237e+006 1.126267347654e+006 1.126005267898e+006 1.126970314616e+006 1.125862951043e+006 1.126672796077e+006 1.127182896968e+006 1.127394701193e+006 1.127179841781e+006 1.127181956040e+006 1.127394599520e+006 1.127175288759e+006 1.127715566783e+006 1.127819847880e+006 1.127646488474e+006 1.127723870598e+006 1.127838026637e+006 1.127645699132e+006 1.127943806082e+006 1.128168571152e+006 1.127851920870e+006 1.127978674090e+006 1.128222020302e+006 1.127908343845e+006 1.128339102528e+006 1.128427267025e+006 1.128388386561e+006 1.128463619850e+006 1.127414357611e+006 1.127643344070e+006 1.127419304348e+006 1.127633315147e+006 1.124855111075e+006 1.123964534674e+006 1.124370577532e+006 1.124849474800e+006 1.123963992094e+006 1.124368115950e+006 1.125441544665e+006 1.125180381962e+006 1.125431207359e+006 1.125178054792e+006 1.126216271765e+006 1.126209392479e+006 1.126889359496e+006 1.126882503202e+006 1.127238490491e+006 1.127227952919e+006 1.129479305937e+006 1.129739772409e+006 1.129489204464e+006 1.130063970649e+006 1.127737229170e+006 1.127730283389e+006 1.128591731667e+006 1.128621177597e+006 1.128052810155e+006 1.128348612030e+006 1.128102006440e+006 1.128312730570e+006 1.128062023503e+006 1.127859777721e+006 1.127950608668e+006 1.127855038818e+006 1.127926116240e+006 1.128017809099e+006 1.129512085766e+006 1.128091758895e+006 1.129501218547e+006 1.129755801133e+006 1.128927472195e+006 1.129039212306e+006 1.128312222733e+006 1.128531003658e+006 1.128393095510e+006 1.128384425321e+006 1.128445141616e+006 1.128500730435e+006 1.128529414892e+006 1.128479577866e+006 1.128485498547e+006 1.128680422185e+006 1.128596482862e+006 1.128716051225e+006 1.128543749673e+006 1.128624755410e+006 1.128967282856e+006 1.130136955158e+006 1.129476271754e+006 1.128957705357e+006 1.130198501777e+006 1.130010342009e+006 1.128922864826e+006 1.000000000000e+006 1.000000000000e+006 1.006988703456e+006 1.130006262289e+006 1.130265974483e+006 1.130204241770e+006 1.130249371294e+006 1.130137598428e+006 1.130395547392e+006 1.130090370523e+006 1.130221310563e+006 1.130094446058e+006 1.129951894769e+006 1.129108590540e+006 1.129057703828e+006 1.130397736268e+006 1.130228813681e+006 1.129059829490e+006 1.128994455315e+006 1.130212586470e+006 1.129054951652e+006 1.129007079013e+006 1.129511428659e+006 1.129454075834e+006 1.128351830568e+006 1.130103533092e+006 1.090786657324e+006 1.090786723357e+006 1.130511380486e+006 1.122252180133e+006 1.122252609303e+006 1.128679715508e+006 1.130194170787e+006 1.130145866192e+006 1.128633836830e+006 1.130190265422e+006 1.130109344288e+006 1.130419507825e+006 1.128483969306e+006 1.128494039570e+006 1.128495238470e+006 1.129892583486e+006 1.041257040501e+006 1.038904652423e+006 1.129855452235e+006 1.129320060818e+006 1.042615016326e+006 1.130072744581e+006 1.130009681601e+006 1.130069299566e+006 1.128813635075e+006 1.129992995521e+006 1.013653086254e+006 1.130547763136e+006 1.130523708086e+006 1.130164640056e+006 1.129018746638e+006 1.130454458581e+006 1.123932619475e+006 1.123930380374e+006 1.130516480919e+006 1.130027423752e+006 1.129511159084e+006 1.130452602683e+006 1.130436890559e+006 1.130070214759e+006 1.130384750941e+006 1.130428718821e+006 1.130239088917e+006 1.129826237509e+006 1.129822750383e+006 1.130179966708e+006 1.130070564270e+006 1.130293758558e+006 1.130097267527e+006 1.129501260023e+006 1.129322951664e+006 1.130375060670e+006 1.129008978922e+006 1.045567639454e+006 1.128971803292e+006 1.023035107148e+006 1.128671393723e+006 1.130121675938e+006 1.129025524531e+006 1.130360409264e+006 1.128974160364e+006 1.130203056412e+006 1.128247515770e+006 1.130357749770e+006 1.130241727131e+006 1.130089978288e+006 1.130114639384e+006 1.130123751709e+006 1.130116277097e+006 1.042615022574e+006 1.047627336114e+006 1.037359104775e+006 1.050143338420e+006 1.130084492107e+006 1.047798190359e+006 1.034143834649e+006 1.130076901005e+006 1.130086357620e+006 1.130110291624e+006 1.130133764966e+006 1.047627320023e+006 1.130196095334e+006 1.130239771825e+006 1.122634063848e+006 1.122634689182e+006 1.124813250133e+006 1.124810350128e+006 1.130108784946e+006 1.130070578818e+006 1.125487275339e+006 1.125483814580e+006 1.125283448261e+006 1.125291213611e+006 1.130047703484e+006 1.130069417758e+006 
        </DataArray>
        <DataArray type="Float64" Name="MEAN_PRESSURE" format="ascii">