<?xml version="1.0"?>
<VTKFile type="UnstructuredGrid" version="0.1" byte_order="LittleEndian">
  <UnstructuredGrid>
    <Piece NumberOfPoints="963" NumberOfCells="1758">
      <Points>
        <DataArray type="Float64" NumberOfComponents="3" format="ascii">
          1.600262034769e+002 1.257989505921e+001 0.000000000000e+000
          1.635346199106e+002 2.000000000000e+001 0.000000000000e+000
          1.554515002484e+002 2.000000000000e+001 0.000000000000e+000
          3.459306441575e+000 1.667621982453e+001 0.000000000000e+000
          3.062266634850e+000 1.705413688405e+001 0.000000000000e+000
          2.873380769063e+000 1.650527725632e+001 0.000000000000e+000
          1.514088444034e+000 1.865189448105e+001 0.000000000000e+000
          1.967902677551e+000 1.834103489750e+001 0.000000000000e+000
          2.034564522234e+000 1.890806711991e+001 0.000000000000e+000
          2.478275273162e+000 1.702762299110e+001 0.000000000000e+000
          2.952621433467e+000 1.774357373580e+001 0.000000000000e+000
          2.237893542067e+000 1.782457469610e+001 0.000000000000e+000
          3.313583922780e+000 3.274674552047e+000 0.000000000000e+000
          2.561432712787e+000 3.156040447793e+000 0.000000000000e+000
          3.047531989640e+000 2.714594415171e+000 0.000000000000e+000
          2.750804692284e+000 3.936058190693e+000 0.000000000000e+000
          2.599039179818e+000 2.451529939148e+000 0.000000000000e+000
          3.139686649742e+000 2.186924052088e+000 0.000000000000e+000
          1.919984553221e+000 3.358010194268e+000 0.000000000000e+000
          1.960900304591e+000 2.773319745251e+000 0.000000000000e+000
          1.894565400391e+000 1.733316857565e+001 0.000000000000e+000
          0.000000000000e+000 1.538461538461e+001 0.000000000000e+000
          5.816229249735e-001 1.567919247147e+001 0.000000000000e+000
          0.000000000000e+000 1.589743589743e+001 0.000000000000e+000
          9.766405669483e+001 2.000000000000e+001 0.000000000000e+000
          1.010672711393e+002 1.500000000000e+001 0.000000000000e+000
          1.029329279907e+002 2.000000000000e+001 0.000000000000e+000
          9.588503785413e+001 1.500000000000e+001 0.000000000000e+000
          1.039231647117e+002 1.000000000000e+001 0.000000000000e+000
          9.860830811271e+001 1.000000000000e+001 0.000000000000e+000
          1.010672711397e+002 5.000000000000e+000 0.000000000000e+000
          9.766405669557e+001 0.000000000000e+000 0.000000000000e+000
          1.029329279915e+002 0.000000000000e+000 0.000000000000e+000
          9.588503785449e+001 5.000000000000e+000 0.000000000000e+000
          7.892434178002e+001 2.000000000000e+001 0.000000000000e+000
          8.173808356948e+001 1.500000000000e+001 0.000000000000e+000
          8.328058896910e+001 2.000000000000e+001 0.000000000000e+000
          7.679274808893e+001 1.514423393202e+001 0.000000000000e+000
          7.970503892166e+001 1.000000000000e+001 0.000000000000e+000
          8.409930620613e+001 1.000000000000e+001 0.000000000000e+000
          8.173808356980e+001 5.000000000000e+000 0.000000000000e+000
          7.892434178065e+001 0.000000000000e+000 0.000000000000e+000
          8.328058896976e+001 0.000000000000e+000 0.000000000000e+000
          7.679274808925e+001 4.855766067979e+000 0.000000000000e+000
          1.084583939765e+002 2.000000000000e+001 0.000000000000e+000
          1.122011528880e+002 1.500000000000e+001 0.000000000000e+000
          1.142529496098e+002 2.000000000000e+001 0.000000000000e+000
          1.065018792644e+002 1.500000000000e+001 0.000000000000e+000
          1.153419838410e+002 1.000000000000e+001 0.000000000000e+000
          1.094968549120e+002 1.000000000000e+001 0.000000000000e+000
          1.122011528884e+002 5.000000000000e+000 0.000000000000e+000
          1.084583939773e+002 0.000000000000e+000 0.000000000000e+000
          1.142529496106e+002 0.000000000000e+000 0.000000000000e+000
          1.065018792648e+002 5.000000000000e+000 0.000000000000e+000
          1.181779812237e+002 1.500000000000e+001 0.000000000000e+000
          1.203297004775e+002 2.000000000000e+001 0.000000000000e+000
          1.214717707847e+002 1.000000000000e+001 0.000000000000e+000
          1.181779812242e+002 5.000000000000e+000 0.000000000000e+000
          1.203297004784e+002 0.000000000000e+000 0.000000000000e+000
          7.477039199538e+001 2.000000000000e+001 0.000000000000e+000
          7.551483469771e+001 1.000000000000e+001 0.000000000000e+000
          7.296959467356e+001 1.385646386579e+001 0.000000000000e+000
          7.477039199599e+001 0.000000000000e+000 0.000000000000e+000
          7.296959467379e+001 6.143536134207e+000 0.000000000000e+000
          6.918477198508e+001 1.366665532880e+001 0.000000000000e+000
          6.746477463053e+001 1.000000000000e+001 0.000000000000e+000
          7.151921701478e+001 1.000000000000e+001 0.000000000000e+000
          6.918477198529e+001 6.333344671202e+000 0.000000000000e+000
          9.263986346551e+001 2.000000000000e+001 0.000000000000e+000
          9.094345943471e+001 1.500000000000e+001 0.000000000000e+000
          9.354026529380e+001 1.000000000000e+001 0.000000000000e+000
          9.263986346623e+001 0.000000000000e+000 0.000000000000e+000
          9.094345943506e+001 5.000000000000e+000 0.000000000000e+000
          1.244344522558e+002 1.503312574389e+001 0.000000000000e+000
          1.267023895482e+002 2.000000000000e+001 0.000000000000e+000
          1.285510028831e+002 1.020485663255e+001 0.000000000000e+000
          1.244344522563e+002 5.033125743893e+000 0.000000000000e+000
          1.267023895491e+002 0.000000000000e+000 0.000000000000e+000
          8.623136018348e+001 1.500000000000e+001 0.000000000000e+000
          8.784898578901e+001 2.000000000000e+001 0.000000000000e+000
          8.870757443665e+001 1.000000000000e+001 0.000000000000e+000
          8.623136018382e+001 5.000000000000e+000 0.000000000000e+000
          8.784898578969e+001 0.000000000000e+000 0.000000000000e+000
          4.872472752737e+000 0.000000000000e+000 0.000000000000e+000
          4.204479229380e+000 6.412840757122e-001 0.000000000000e+000
          4.157376851380e+000 0.000000000000e+000 0.000000000000e+000
          5.192892237051e+000 7.280355562789e-001 0.000000000000e+000
          1.306630304579e+000 6.212843344151e-001 0.000000000000e+000
          1.050228457081e+000 0.000000000000e+000 0.000000000000e+000
          1.614006202528e+000 0.000000000000e+000 0.000000000000e+000
          1.266763055794e+001 1.554696422866e+001 0.000000000000e+000
          1.263589100638e+001 1.657720348306e+001 0.000000000000e+000
          1.174268578662e+001 1.633018318031e+001 0.000000000000e+000
          6.588835695415e+000 7.505681085529e+000 0.000000000000e+000
          6.456871838389e+000 6.658671683861e+000 0.000000000000e+000
          7.208099140752e+000 7.038822846307e+000 0.000000000000e+000
          4.412623338166e+000 9.138856431549e+000 0.000000000000e+000
          4.024185797397e+000 8.708923235630e+000 0.000000000000e+000
          4.601447447338e+000 8.507292699647e+000 0.000000000000e+000
          5.325995059827e-001 6.308307298123e+000 0.000000000000e+000
          0.000000000000e+000 6.666666666655e+000 0.000000000000e+000
          0.000000000000e+000 6.153846153835e+000 0.000000000000e+000
          3.986461521768e+000 8.146114708182e+000 0.000000000000e+000
          2.411603373059e+000 6.510912162016e+000 0.000000000000e+000
          1.807525763324e+000 6.938080373464e+000 0.000000000000e+000
          1.686779352680e+000 6.178928843543e+000 0.000000000000e+000
          2.510760620997e+000 7.229076682239e+000 0.000000000000e+000
          3.166991983438e+000 6.906135870389e+000 0.000000000000e+000
          3.452788915829e+000 6.276851216781e+000 0.000000000000e+000
          3.340122000742e+000 5.656365440432e+000 0.000000000000e+000
          4.047936562877e+000 5.873561587395e+000 0.000000000000e+000
          1.802463974828e+000 1.292744708026e+001 0.000000000000e+000
          1.383967161336e+000 1.330299552906e+001 0.000000000000e+000
          1.329690820161e+000 1.266495373033e+001 0.000000000000e+000
          2.267922292389e+000 1.431116835808e+001 0.000000000000e+000
          2.854613987538e+000 1.466581611369e+001 0.000000000000e+000
          2.339869278674e+000 1.493776402241e+001 0.000000000000e+000
          4.690956878046e+000 3.115726773737e+000 0.000000000000e+000
          4.014773718330e+000 2.850429494150e+000 0.000000000000e+000
          4.643493383296e+000 2.293565471327e+000 0.000000000000e+000
          5.186083944243e+000 1.661927139510e+000 0.000000000000e+000
          5.452965511439e+000 2.679881546544e+000 0.000000000000e+000
          5.360460104304e+000 3.539902157655e+000 0.000000000000e+000
          6.197986304192e+000 3.115706366113e+000 0.000000000000e+000
          7.929356606585e-001 1.634705420870e+001 0.000000000000e+000
          1.222819867503e+000 1.599517159419e+001 0.000000000000e+000
          1.215723647926e+000 1.546209040954e+001 0.000000000000e+000
          1.770601276021e+000 1.521217632514e+001 0.000000000000e+000
          1.242830150061e+000 1.493919370237e+001 0.000000000000e+000
          1.166444124506e+000 4.610115997312e+000 0.000000000000e+000
          1.851620547934e+000 4.486892013458e+000 0.000000000000e+000
          1.494152702314e+000 5.145235789232e+000 0.000000000000e+000
          1.353088107040e+000 4.090803091641e+000 0.000000000000e+000
          3.802567455935e+000 5.084697985980e+000 0.000000000000e+000
          1.014840185783e+000 5.494768572296e+000 0.000000000000e+000
          8.831064584820e-001 5.109311190608e+000 0.000000000000e+000
          1.727903958959e+000 1.618384478933e+001 0.000000000000e+000
          1.343261525342e+000 1.651800241408e+001 0.000000000000e+000
          3.308120627291e+000 8.593311644828e+000 0.000000000000e+000
[...]
      <PointData Scalars="LIQUID_PRESSURE">
        <DataArray type="Float64" Name="LIQUID_PRESSURE" format="ascii">
          1.000582860212e+006 9.998303229167e+005 1.000125201779e+006 9.999120903387e+005 1.000053357827e+006 1.000245804415e+006 1.000179450474e+006 1.000756669341e+006 1.000794853804e+006 1.000786109577e+006 1.000149373514e+006 1.000833954643e+006 9.998441113515e+005 1.000629355634e+006 1.000040060057e+006 1.000315139912e+006 1.000625191421e+006 9.999149939069e+005 1.000729237228e+006 1.000793211591e+006 1.000640002422e+006 1.000689363623e+006 1.000319273259e+006 1.000684561278e+006 1.000263415980e+006 1.000261278471e+006 1.000256530640e+006 1.000264683401e+006 1.000255185476e+006 1.000262385966e+006 1.000261342379e+006 1.000263480642e+006 1.000256656860e+006 1.000264734031e+006 1.000285191585e+006 1.000279505675e+006 1.000280988225e+006 1.000288843013e+006 1.000289126084e+006 1.000277594829e+006 1.000279573732e+006 1.000285329768e+006 1.000280949636e+006 1.000288582368e+006 1.000249336380e+006 1.000242451233e+006 1.000239670403e+006 1.000251225149e+006 1.000237489689e+006 1.000247799745e+006 1.000242798835e+006 1.000249332829e+006 1.000240366506e+006 1.000251209914e+006 1.000234041455e+006 1.000228749193e+006 1.000229209777e+006 1.000233697295e+006 1.000225737245e+006 1.000298818019e+006 1.000283533429e+006 1.000280979629e+006 1.000298442589e+006 1.000281304126e+006 1.000274482899e+006 1.000280242165e+006 1.000319074744e+006 1.000274847844e+006 1.000274291470e+006 1.000270813401e+006 1.000272470997e+006 1.000274309006e+006 1.000270818146e+006 1.000228905587e+006 1.000231303120e+006 1.000223712393e+006 1.000226706692e+006 1.000237629198e+006 1.000282418674e+006 1.000271987114e+006 1.000272675244e+006 1.000282413690e+006 1.000272011227e+006 1.000545107572e+006 1.000700807218e+006 1.000576325453e+006 1.000100343230e+006 9.999525941467e+005 9.998621866782e+005 1.000355903250e+006 1.000399921063e+006 1.000198035352e+006 1.000280699408e+006 1.000844651244e+006 1.000801543596e+006 1.000285761880e+006 1.000829177679e+006 1.000531022818e+006 1.000642326534e+006 1.000326718330e+006 1.000763546876e+006 1.000724946470e+006 1.000509815632e+006 1.000753303394e+006 1.000588524104e+006 1.000458264692e+006 1.000620762292e+006 9.998694252903e+005 9.998842063810e+005 9.998489959080e+005 1.000608930235e+006 1.000546158824e+006 9.999959764281e+005 9.999409463821e+005 1.000856069807e+006 1.000250834951e+006 1.000835975302e+006 1.000594283180e+006 1.000545169622e+006 1.000627890119e+006 1.000089635466e+006 9.999213576861e+005 9.998797040181e+005 1.000510514113e+006 1.000120908364e+006 9.998475294715e+005 9.998462797690e+005 1.000505662818e+006 9.998513796625e+005 9.998566341486e+005 1.000544602348e+006 1.000113265172e+006 9.999233336355e+005 1.000188107834e+006 9.998752117943e+005 9.999809741060e+005 1.000403759133e+006 9.999024811024e+005 9.998400391433e+005 1.000460150725e+006 9.998411963537e+005 1.000046360458e+006 1.000097191479e+006 9.998896641773e+005 1.000113223529e+006 9.999404725146e+005 9.999779321689e+005 1.000099845055e+006 1.000084282109e+006 1.000191457777e+006 1.000604815983e+006 1.000622859785e+006 1.000625384574e+006 9.998717389022e+005 1.000380527956e+006 1.000826929914e+006 1.000545316794e+006 1.000541592106e+006 1.000079902870e+006 9.998866258123e+005 1.000267442505e+006 1.000079740923e+006 9.999546046825e+005 9.999660488074e+005 1.000017304302e+006 1.000456749637e+006 1.000609896564e+006 1.000608455132e+006 1.000617512173e+006 1.000820956997e+006 1.000230707374e+006 1.000743665554e+006 1.000104265219e+006 9.998730162714e+005 1.000474891149e+006 9.998991419853e+005 1.000381740353e+006 1.000594677358e+006 1.000647701618e+006 9.998430611273e+005 1.000574203961e+006 1.000530657231e+006 1.000095497786e+006 1.000784973809e+006 1.000079957603e+006 1.000241086321e+006 9.998681926533e+005 9.999209607541e+005 1.000485150980e+006 1.000820569750e+006 1.000317887434e+006 1.000671116168e+006 1.000838806696e+006 1.000834095551e+006 9.999216831837e+005 1.000825552410e+006 1.000099728279e+006 1.000667991393e+006 9.999641575810e+005 9.999108104433e+005 1.000619448397e+006 1.000780989450e+006 1.000424546353e+006 9.998539037063e+005 9.998513649320e+005 9.998375692341e+005 1.000290110560e+006 9.998734700112e+005 9.999197979152e+005 9.999787099913e+005 9.998795215429e+005 1.000242868502e+006 1.000806394549e+006 1.000333515622e+006 1.000330672068e+006 1.000567921171e+006 1.000825209853e+006 9.998827628723e+005 1.000273425116e+006 9.999196922727e+005 1.000745573724e+006 1.000154512692e+006 1.000843727065e+006 9.998791771055e+005 1.000190721365e+006 9.998936165469e+005 1.000583596694e+006 1.000734226996e+006 9.999781762328e+005 1.000763633035e+006 9.998469358406e+005 9.998953293679e+005 1.000413872902e+006 9.999263143178e+005 1.000280478509e+006 1.000140572526e+006 1.000562889536e+006 1.000544604177e+006 9.998316791663e+005 1.000885465102e+006 1.000303378799e+006 1.000349040833e+006 1.000337418291e+006 1.000755611101e+006 1.000693065250e+006 1.000725644085e+006 1.000743255282e+006 1.000456131108e+006 1.000535299741e+006 1.000508310763e+006 9.998696325674e+005 1.000297491481e+006 1.000550511620e+006 1.000597407005e+006 1.000585926164e+006 1.000605439283e+006 1.000566238586e+006 1.000598381646e+006 1.000516211671e+006 1.000602949400e+006 1.000596521343e+006 1.000614095150e+006 1.000592737287e+006 1.000242854784e+006 1.000289180505e+006 1.000372888654e+006 1.000352221777e+006 1.000349595793e+006 1.000258077244e+006 1.000275620486e+006 1.000247167727e+006 1.000396598211e+006 1.000355828842e+006 1.000358204834e+006 1.000261098486e+006 1.000276480952e+006 1.000246579363e+006 1.000342542733e+006 1.000429809671e+006 1.000336509593e+006 1.000267839525e+006 1.000247606683e+006 1.000279360871e+006 1.000335891458e+006 1.000428812492e+006 1.000333287030e+006 1.000268917710e+006 1.000306786628e+006 1.000336227219e+006 1.000331952730e+006 1.000314090705e+006 1.000310414730e+006 1.000312956609e+006 1.000336239390e+006 1.000306797700e+006 1.000331942592e+006 1.000314078947e+006 1.000310420724e+006 1.000312950389e+006 1.000261821853e+006 1.000408360504e+006 1.000277911534e+006 1.000316772981e+006 1.000258344443e+006 1.000299025977e+006 1.000408354470e+006 1.000261850278e+006 1.000277891164e+006 1.000316762766e+006 1.000258343665e+006 1.000299026960e+006 1.000407025945e+006 1.000345575133e+006 1.000233484862e+006 1.000272912011e+006 1.000345536578e+006 1.000406951714e+006 1.000233471569e+006 1.000272571486e+006 1.000370722440e+006 1.000241729701e+006 1.000434568825e+006 1.000284455899e+006 1.000406833589e+006 1.000365874807e+006 1.000241653920e+006 1.000370711721e+006 1.000434710466e+006 1.000284476036e+006 1.000406842027e+006 1.000365876800e+006 1.000249426044e+006 1.000238819331e+006 1.000276323283e+006 1.000248644454e+006 1.000239174573e+006 1.000276128299e+006 1.000332018055e+006 1.000379012108e+006 1.000323304473e+006 1.000332023756e+006 1.000378983093e+006 1.000323272065e+006 1.000246317377e+006 1.000246362419e+006 1.000382110828e+006 1.000308633218e+006 1.000259140922e+006 1.000264918950e+006 1.000381521243e+006 1.000265105690e+006 1.000341126232e+006 1.000304189364e+006 1.000311859178e+006 1.000323686530e+006 1.000341123439e+006 1.000323684126e+006 1.000281498167e+006 1.000332816716e+006 1.000282444008e+006 1.000326897687e+006 1.000418739206e+006 1.000418189685e+006 1.000326411589e+006 1.000386977482e+006 1.000237535405e+006 1.000237513185e+006 1.000342312359e+006 1.000273081132e+006 1.000342319264e+006 1.000352734523e+006 1.000332863322e+006 1.000352726827e+006 1.000344129574e+006 1.000344166954e+006 1.000306331366e+006 1.000352345288e+006 1.000352334722e+006 1.000337182016e+006 1.000282651232e+006 1.000337392614e+006 1.000302649793e+006 1.000284560386e+006 1.000295746273e+006 1.000281479305e+006 1.000303762226e+006 1.000258598709e+006 1.000303302979e+006 1.000255567452e+006 1.000057254553e+006 1.000072882945e+006 1.000373029477e+006 1.000467500553e+006 1.000181231554e+006 1.000486714812e+006 1.000849171497e+006 1.000290837355e+006 1.000777973088e+006 1.000561895026e+006 1.000234363352e+006 1.000372322428e+006 1.000456451205e+006 1.000020458519e+006 1.000625291549e+006 9.996869146496e+005 1.001103060948e+006 1.000772144642e+006 1.000149593055e+006 1.000614166560e+006 1.000719561683e+006 1.000318757849e+006 1.000632084699e+006 9.998153455458e+005 1.000424189039e+006 1.000306358261e+006 1.000829414729e+006 1.000481716654e+006 1.000122228291e+006 1.000114728378e+006 1.000350625613e+006 1.000816476552e+006 1.000068227115e+006 1.000768006399e+006 1.000426131071e+006 1.000678551401e+006 1.000005626081e+006 1.000086832523e+006 1.000092848781e+006 1.000580673270e+006 1.000040796294e+006 1.000718105803e+006 1.000368308757e+006 1.000552587811e+006 1.000702035598e+006 1.000486916901e+006 1.000236078407e+006 1.000504941367e+006 1.000181628583e+006 9.998523573787e+005 1.000382334873e+006 1.000745303086e+006 1.000357619916e+006 9.999671191254e+005 9.999484558314e+005 1.000240071895e+006 1.000297363380e+006 1.000306911178e+006 1.000584680257e+006 1.000575888893e+006 1.000736281290e+006 1.000394414703e+006 1.000517596562e+006 9.999742700189e+005 1.000787984817e+006 9.999188514196e+005 1.000380998166e+006 1.000316189387e+006 1.000389144204e+006 1.000427947790e+006 9.998746801469e+005 1.000021072294e+006 1.000729690130e+006 9.999025428193e+005 9.999845033639e+005 1.000515589682e+006 1.000489842161e+006 1.000016737731e+006 1.000042490366e+006 1.000004401262e+006 1.000276888389e+006 1.000014587443e+006 1.000461836407e+006 1.000554212508e+006 1.000496394146e+006 1.000011746715e+006 1.000199872365e+006 1.000662079142e+006 1.000746482266e+006 1.000433081885e+006 1.000102557216e+006 1.000153848422e+006 9.999351426870e+005 9.998509263690e+005 1.000526552669e+006 1.000757931205e+006 9.998109239131e+005 9.998949788730e+005 1.000511197876e+006 1.000845947628e+006 1.000404303916e+006 9.999459800806e+005 1.000580110609e+006 1.000692305995e+006 1.000391102372e+006 1.000043711708e+006 1.000791672740e+006 1.000288162632e+006 1.000361225418e+006 1.000263246769e+006 1.000273432883e+006 9.998875126815e+005 1.000013218419e+006 1.000499551767e+006 1.000795897659e+006 1.000312963117e+006 9.999085674729e+005 1.000170923382e+006 1.000548597838e+006 1.000550567176e+006 1.000791215938e+006 1.000055242933e+006 9.999540561419e+005 1.000754037999e+006 1.000687400532e+006 1.000696047890e+006 1.000362739742e+006 9.998520012238e+005 1.000422211922e+006 1.000815776571e+006 1.000299294617e+006 1.000796512282e+006 1.000798392241e+006 1.000530256286e+006 9.999177452330e+005 1.000759204046e+006 1.000741291722e+006 9.998358867841e+005 1.000022701469e+006 1.000546117757e+006 1.000329290396e+006 1.000065375924e+006 1.000143201783e+006 1.000766250852e+006 1.000327242340e+006 1.000464879233e+006 1.000782142403e+006 1.000030405696e+006 1.000247616094e+006 1.000512647086e+006 1.000109204053e+006 1.000197953643e+006 1.000626072920e+006 1.000025104286e+006 1.000134316545e+006 1.000045544233e+006 1.000800075809e+006 1.000843352419e+006 9.999279644391e+005 9.999828373806e+005 1.000102281445e+006 1.000597649394e+006 1.000300202503e+006 1.000328892142e+006 1.000816382814e+006 1.000580540251e+006 1.000308571405e+006 1.000436203103e+006 1.000766828867e+006 1.000757492736e+006 1.000480572055e+006 1.000427912681e+006 1.000037521166e+006 1.000279005795e+006 1.000002004857e+006 1.000840523440e+006 9.998088699269e+005 1.000602263431e+006 1.000395225001e+006 1.000101052135e+006 9.999525689984e+005 1.000670278509e+006 9.999466761070e+005 9.998428033276e+005 1.000272133480e+006 1.000699781112e+006 1.000260949335e+006 1.000621228780e+006 1.000411057242e+006 1.000245640942e+006 1.000750349158e+006 1.000059635586e+006 9.998162538638e+005 1.000710685284e+006 1.000184363095e+006 1.000769248587e+006 9.999856099763e+005 1.000693119011e+006 1.000327021889e+006 9.998356122383e+005 1.000722752653e+006 1.000099276467e+006 1.000775788547e+006 9.999406296603e+005 1.000349995987e+006 1.000554658789e+006 9.999126692481e+005 9.999300499438e+005 1.000586302294e+006 1.000231503984e+006 1.000393369314e+006 1.000251812061e+006 1.000120651294e+006 1.000426498001e+006 1.000749079522e+006 1.000544279877e+006 1.000009477729e+006 1.000763209098e+006 1.000163997043e+006 9.998671491357e+005 1.000712927161e+006 1.000240662267e+006 1.000342522888e+006 1.000344663323e+006 1.000425974936e+006 1.000742573275e+006 1.000331753698e+006 1.000200688333e+006 1.000620945746e+006 9.998920718858e+005 1.000561389984e+006 1.000115319077e+006 1.000599713619e+006 1.000178265286e+006 1.000522752269e+006 1.000181372542e+006 1.000140417698e+006 9.992009990427e+005 1.000998708287e+006 1.000533856597e+006 9.998561644333e+005 9.999272794389e+005 1.000456807592e+006 9.999478143069e+005 1.000274730195e+006 1.000295257805e+006 1.000360638932e+006 1.000294762691e+006 1.000357641082e+006 9.998888528444e+005 1.000187588975e+006 9.999102946920e+005 9.998715048382e+005 1.000212338296e+006 1.000351354012e+006 1.000410144653e+006 1.000351112850e+006 1.000713821234e+006 1.000270713558e+006 1.000106347279e+006 1.000373358781e+006 1.000155818004e+006 9.998894356550e+005 1.000647899798e+006 1.000801549645e+006 9.998767395011e+005 9.998153625599e+005 1.000797218700e+006 9.998150745138e+005 1.000081275071e+006 1.000609673956e+006 1.000874396846e+006 1.000649595988e+006 1.000590514236e+006 1.000770418810e+006 1.000431520379e+006 1.000633606108e+006 1.000563869551e+006 1.000546674286e+006 1.000050438477e+006 1.000243609269e+006 1.000243820447e+006 1.000604841727e+006 1.000544111052e+006 1.000074479596e+006 1.000544777647e+006 1.000534201385e+006 1.000620106703e+006 1.000743808605e+006 1.000419639451e+006 9.999586834470e+005 1.000186241039e+006 1.000144594753e+006 1.000664648136e+006 1.000772286360e+006 1.000691038182e+006 1.000126172117e+006 1.000515837108e+006 1.000589948378e+006 1.000601960821e+006 1.000451665788e+006 1.000162405655e+006 1.000327076996e+006 1.000420701436e+006 1.000489176193e+006 1.000374440342e+006 1.000325188173e+006 1.000498025355e+006 1.000322388349e+006 1.000281372752e+006 1.000312237709e+006 1.000179074282e+006 1.000274414145e+006 1.000289582415e+006 1.000427954083e+006 1.000229447298e+006 1.000362575331e+006 1.000219131183e+006 1.000402792011e+006 1.000317722559e+006 1.000422350107e+006 1.000422669950e+006 1.000422767691e+006 1.000413761014e+006 1.000286275108e+006 1.000258225013e+006 1.000145509224e+006 1.000257412498e+006 1.000147384800e+006 1.000545677840e+006 1.000293463019e+006 1.000476252704e+006 1.000297216439e+006 1.000483876322e+006 1.000350261469e+006 1.000285775812e+006 1.000366421833e+006 1.000297491285e+006 1.000297546779e+006 1.000349433745e+006 1.000366626638e+006 1.000271802704e+006 1.000363046570e+006 1.000453007635e+006 1.000358097767e+006 1.000477409698e+006 1.000184218207e+006 1.000240038476e+006 1.000178514585e+006 1.000227431291e+006 1.000456024222e+006 1.000372400385e+006 1.000456836184e+006 1.000374133617e+006 1.000340314351e+006 1.000132874834e+006 1.000546175433e+006 1.000497692714e+006 1.000357284213e+006 1.000265501851e+006 1.000134585656e+006 1.000341478082e+006 1.000541883998e+006 1.000498396694e+006 1.000357850785e+006 1.000265772207e+006 1.000252412533e+006 1.000167604272e+006 1.000349580032e+006 1.000255026838e+006 1.000164550483e+006 1.000353631010e+006 1.000569072424e+006 1.000424760157e+006 1.000490446729e+006 1.000569226502e+006 1.000403968302e+006 1.000491793477e+006 1.000038788297e+006 1.000386789285e+006 1.000055437593e+006 1.000039631879e+006 1.000410901891e+006 1.000070837058e+006 1.000649016984e+006 1.000099079120e+006 1.000622111063e+006 1.000083852561e+006 1.000210302657e+006 1.000512230214e+006 1.000209953454e+006 1.000509821182e+006 1.000270518201e+006 1.000361181825e+006 1.000327788815e+006 1.000272334842e+006 1.000360560440e+006 1.000328171901e+006 1.000229378595e+006 1.000421528452e+006 1.000229015678e+006 1.000420748506e+006 1.000439246971e+006 1.000441247072e+006 1.000387668058e+006 1.000386560356e+006 1.000126918278e+006 1.000121123902e+006 1.000100713429e+006 1.000554533686e+006 1.000046404716e+006 1.000383849855e+006 1.000540364606e+006 1.000514533441e+006 1.000116927991e+006 1.000124471392e+006 1.000132805674e+006 1.000525676083e+006 1.000212053182e+006 1.000527859374e+006 1.000210790962e+006 1.000366285231e+006 1.000092068752e+006 1.000353413510e+006 1.000086718503e+006 1.000069809662e+006 1.000586833426e+006 1.000165354622e+006 9.998899889226e+005 1.000706652984e+006 1.000653033607e+006 1.000558615358e+006 1.000501890059e+006 1.000403749726e+006 1.000547296576e+006 1.000528192348e+006 1.000489117275e+006 1.000117674269e+006 1.000308252283e+006 1.000037469328e+006 1.000376969345e+006 1.000173712356e+006 1.000044620338e+006 1.000180331936e+006 1.000106521987e+006 1.000186740885e+006 1.000677770486e+006 1.000701723825e+006 1.000182698337e+006 1.000548936061e+006 1.000171491860e+006 1.000374704224e+006 1.000565878857e+006 1.000000000000e+006 1.000000000000e+006 1.000169547443e+006 1.000602149724e+006 1.000773294456e+006 1.000099175516e+006 1.000633381226e+006 1.000634080577e+006 9.999383813380e+005 1.000750019063e+006 1.000301771149e+006 1.000695487791e+006 1.000087840752e+006 1.000046432729e+006 1.000038256889e+006 9.998983589640e+005 1.000224936373e+006 1.000097123048e+006 1.000653710307e+006 1.000777391557e+006 1.000310341253e+006 1.000075917270e+006 1.000089576619e+006 1.000672889624e+006 1.000626078477e+006 1.000605572623e+006 1.000290750656e+006 1.000289619491e+006 1.000777786436e+006 1.000290469220e+006 1.000290616827e+006 1.000140524759e+006 1.000256862284e+006 1.000639890266e+006 1.000129642463e+006 1.000015388045e+006 9.998955930338e+005 1.000187304790e+006 1.000433420080e+006 1.000117280681e+006 1.000323548903e+006 1.000041015910e+006 1.000098136875e+006 1.000094141939e+006 1.000727622475e+006 1.000532524585e+006 1.000335217233e+006 1.000699845524e+006 1.000390451691e+006 1.000701363708e+006 1.000445430539e+006 1.000347261132e+006 1.000361954226e+006 1.000723353448e+006 1.000599247255e+006 9.998922466724e+005 1.000197842753e+006 1.000762436504e+006 1.000322216557e+006 1.000322002762e+006 1.000797986811e+006 1.000537143266e+006 1.000354573919e+006 1.000123136136e+006 1.000733870036e+006 1.000635194164e+006 9.999325763815e+005 1.000255112270e+006 1.000304450924e+006 1.000527698244e+006 1.000173536238e+006 1.000118075176e+006 1.000722332947e+006 1.000549192860e+006 1.000714819040e+006 1.000748157104e+006 1.000523447896e+006 9.998932054149e+005 1.000018363028e+006 1.000280653652e+006 1.000648951939e+006 1.000234500926e+006 1.000163066907e+006 9.998851607962e+005 1.000333171007e+006 1.000083482971e+006 1.000584044771e+006 1.000833203233e+006 1.000619961509e+006 1.000629588103e+006 1.000656822738e+006 1.000629687796e+006 1.000637760532e+006 1.000738178742e+006 1.000661411465e+006 1.000208248918e+006 1.000234725849e+006 1.000416918081e+006 1.000223494967e+006 1.000593520799e+006 1.000231003492e+006 9.994337570048e+005 1.000031641205e+006 1.000616598051e+006 1.000590366722e+006 1.000745353490e+006 1.000183245943e+006 1.000169438782e+006 1.000217966008e+006 1.000297346340e+006 1.000297184306e+006 1.000359282933e+006 1.000355969162e+006 1.000706827688e+006 1.000619049741e+006 1.000183862545e+006 1.000189630739e+006 1.000206397015e+006 1.000217825951e+006 1.000603830653e+006 1.000576567375e+006 
        </DataArray>
        <DataArray type="Float64" Name="MEAN_PRESSURE" format="ascii">