<?xml version="1.0"?>
<VTKFile type="UnstructuredGrid" version="0.1" byte_order="LittleEndian">
  <UnstructuredGrid>
    <Piece NumberOfPoints="963" NumberOfCells="1758">
      <Points>
        <DataArray type="Float64" NumberOfComponents="3" format="ascii">
          1.600262034769e+002 1.257989505921e+001 0.000000000000e+000
          1.635346199106e+002 2.000000000000e+001 0.000000000000e+000
          1.554515002484e+002 2.000000000000e+001 0.000000000000e+000
          3.459306441575e+000 1.667621982453e+001 0.000000000000e+000
          3.062266634850e+000 1.705413688405e+001 0.000000000000e+000
          2.873380769063e+000 1.650527725632e+001 0.000000000000e+000
          1.514088444034e+000 1.865189448105e+001 0.000000000000e+000
          1.967902677551e+000 1.834103489750e+001 0.000000000000e+000
          2.034564522234e+000 1.890806711991e+001 0.000000000000e+000
          2.478275273162e+000 1.702762299110e+001 0.000000000000e+000
          2.952621433467e+000 1.774357373580e+001 0.000000000000e+000
          2.237893542067e+000 1.782457469610e+001 0.000000000000e+000
          3.313583922780e+000 3.274674552047e+000 0.000000000000e+000
          2.561432712787e+000 3.156040447793e+000 0.000000000000e+000
          3.047531989640e+000 2.714594415171e+000 0.000000000000e+000
          2.750804692284e+000 3.936058190693e+000 0.000000000000e+000
          2.599039179818e+000 2.451529939148e+000 0.000000000000e+000
          3.139686649742e+000 2.186924052088e+000 0.000000000000e+000
          1.919984553221e+000 3.358010194268e+000 0.000000000000e+000
          1.960900304591e+000 2.773319745251e+000 0.000000000000e+000
          1.894565400391e+000 1.733316857565e+001 0.000000000000e+000
          0.000000000000e+000 1.538461538461e+001 0.000000000000e+000
          5.816229249735e-001 1.567919247147e+001 0.000000000000e+000
          0.000000000000e+000 1.589743589743e+001 0.000000000000e+000
          9.766405669483e+001 2.000000000000e+001 0.000000000000e+000
          1.010672711393e+002 1.500000000000e+001 0.000000000000e+000
          1.029329279907e+002 2.000000000000e+001 0.000000000000e+000
          9.588503785413e+001 1.500000000000e+001 0.000000000000e+000
          1.039231647117e+002 1.000000000000e+001 0.000000000000e+000
          9.860830811271e+001 1.000000000000e+001 0.000000000000e+000
          1.010672711397e+002 5.000000000000e+000 0.000000000000e+000
          9.766405669557e+001 0.000000000000e+000 0.000000000000e+000
          1.029329279915e+002 0.000000000000e+000 0.000000000000e+000
          9.588503785449e+001 5.000000000000e+000 0.000000000000e+000
          7.892434178002e+001 2.000000000000e+001 0.000000000000e+000
          8.173808356948e+001 1.500000000000e+001 0.000000000000e+000
          8.328058896910e+001 2.000000000000e+001 0.000000000000e+000
          7.679274808893e+001 1.514423393202e+001 0.000000000000e+000
          7.970503892166e+001 1.000000000000e+001 0.000000000000e+000
          8.409930620613e+001 1.000000000000e+001 0.000000000000e+000
          8.173808356980e+001 5.000000000000e+000 0.000000000000e+000
          7.892434178065e+001 0.000000000000e+000 0.000000000000e+000
          8.328058896976e+001 0.000000000000e+000 0.000000000000e+000
          7.679274808925e+001 4.855766067979e+000 0.000000000000e+000
          1.084583939765e+002 2.000000000000e+001 0.000000000000e+000
          1.122011528880e+002 1.500000000000e+001 0.000000000000e+000
          1.142529496098e+002 2.000000000000e+001 0.000000000000e+000
          1.065018792644e+002 1.500000000000e+001 0.000000000000e+000
          1.153419838410e+002 1.000000000000e+001 0.000000000000e+000
          1.094968549120e+002 1.000000000000e+001 0.000000000000e+000
          1.122011528884e+002 5.000000000000e+000 0.000000000000e+000
          1.084583939773e+002 0.000000000000e+000 0.000000000000e+000
          1.142529496106e+002 0.000000000000e+000 0.000000000000e+000
          1.065018792648e+002 5.000000000000e+000 0.000000000000e+000
          1.181779812237e+002 1.500000000000e+001 0.000000000000e+000
          1.203297004775e+002 2.000000000000e+001 0.000000000000e+000
          1.214717707847e+002 1.000000000000e+001 0.000000000000e+000
          1.181779812242e+002 5.000000000000e+000 0.000000000000e+000
          1.203297004784e+002 0.000000000000e+000 0.000000000000e+000
          7.477039199538e+001 2.000000000000e+001 0.000000000000e+000
          7.551483469771e+001 1.000000000000e+001 0.000000000000e+000
          7.296959467356e+001 1.385646386579e+001 0.000000000000e+000
          7.477039199599e+001 0.000000000000e+000 0.000000000000e+000
          7.296959467379e+001 6.143536134207e+000 0.000000000000e+000
          6.918477198508e+001 1.366665532880e+001 0.000000000000e+000
          6.746477463053e+001 1.000000000000e+001 0.000000000000e+000
          7.151921701478e+001 1.000000000000e+001 0.000000000000e+000
          6.918477198529e+001 6.333344671202e+000 0.000000000000e+000
          9.263986346551e+001 2.000000000000e+001 0.000000000000e+000
          9.094345943471e+001 1.500000000000e+001 0.000000000000e+000
          9.354026529380e+001 1.000000000000e+001 0.000000000000e+000
          9.263986346623e+001 0.000000000000e+000 0.000000000000e+000
          9.094345943506e+001 5.000000000000e+000 0.000000000000e+000
          1.244344522558e+002 1.503312574389e+001 0.000000000000e+000
          1.267023895482e+002 2.000000000000e+001 0.000000000000e+000
          1.285510028831e+002 1.020485663255e+001 0.000000000000e+000
          1.244344522563e+002 5.033125743893e+000 0.000000000000e+000
          1.267023895491e+002 0.000000000000e+000 0.000000000000e+000
          8.623136018348e+001 1.500000000000e+001 0.000000000000e+000
          8.784898578901e+001 2.000000000000e+001 0.000000000000e+000
          8.870757443665e+001 1.000000000000e+001 0.000000000000e+000
          8.623136018382e+001 5.000000000000e+000 0.000000000000e+000
          8.784898578969e+001 0.000000000000e+000 0.000000000000e+000
          4.872472752737e+000 0.000000000000e+000 0.000000000000e+000
          4.204479229380e+000 6.412840757122e-001 0.000000000000e+000
          4.157376851380e+000 0.000000000000e+000 0.000000000000e+000
          5.192892237051e+000 7.280355562789e-001 0.000000000000e+000
          1.306630304579e+000 6.212843344151e-001 0.000000000000e+000
          1.050228457081e+000 0.000000000000e+000 0.000000000000e+000
          1.614006202528e+000 0.000000000000e+000 0.000000000000e+000
          1.266763055794e+001 1.554696422866e+001 0.000000000000e+000
          1.263589100638e+001 1.657720348306e+001 0.000000000000e+000
          1.174268578662e+001 1.633018318031e+001 0.000000000000e+000
          6.588835695415e+000 7.505681085529e+000 0.000000000000e+000
          6.456871838389e+000 6.658671683861e+000 0.000000000000e+000
          7.208099140752e+000 7.038822846307e+000 0.000000000000e+000
          4.412623338166e+000 9.138856431549e+000 0.000000000000e+000
          4.024185797397e+000 8.708923235630e+000 0.000000000000e+000
          4.601447447338e+000 8.507292699647e+000 0.000000000000e+000
          5.325995059827e-001 6.308307298123e+000 0.000000000000e+000
          0.000000000000e+000 6.666666666655e+000 0.000000000000e+000
          0.000000000000e+000 6.153846153835e+000 0.000000000000e+000
          3.986461521768e+000 8.146114708182e+000 0.000000000000e+000
          2.411603373059e+000 6.510912162016e+000 0.000000000000e+000
          1.807525763324e+000 6.938080373464e+000 0.000000000000e+000
          1.686779352680e+000 6.178928843543e+000 0.000000000000e+000
          2.510760620997e+000 7.229076682239e+000 0.000000000000e+000
          3.166991983438e+000 6.906135870389e+000 0.000000000000e+000
          3.452788915829e+000 6.276851216781e+000 0.000000000000e+000
          3.340122000742e+000 5.656365440432e+000 0.000000000000e+000
          4.047936562877e+000 5.873561587395e+000 0.000000000000e+000
          1.802463974828e+000 1.292744708026e+001 0.000000000000e+000
          1.383967161336e+000 1.330299552906e+001 0.000000000000e+000
          1.329690820161e+000 1.266495373033e+001 0.000000000000e+000
          2.267922292389e+000 1.431116835808e+001 0.000000000000e+000
          2.854613987538e+000 1.466581611369e+001 0.000000000000e+000
          2.339869278674e+000 1.493776402241e+001 0.000000000000e+000
          4.690956878046e+000 3.115726773737e+000 0.000000000000e+000
          4.014773718330e+000 2.850429494150e+000 0.000000000000e+000
          4.643493383296e+000 2.293565471327e+000 0.000000000000e+000
          5.186083944243e+000 1.661927139510e+000 0.000000000000e+000
          5.452965511439e+000 2.679881546544e+000 0.000000000000e+000
          5.360460104304e+000 3.539902157655e+000 0.000000000000e+000
          6.197986304192e+000 3.115706366113e+000 0.000000000000e+000
          7.929356606585e-001 1.634705420870e+001 0.000000000000e+000
          1.222819867503e+000 1.599517159419e+001 0.000000000000e+000
          1.215723647926e+000 1.546209040954e+001 0.000000000000e+000
          1.770601276021e+000 1.521217632514e+001 0.000000000000e+000
          1.242830150061e+000 1.493919370237e+001 0.000000000000e+000
          1.166444124506e+000 4.610115997312e+000 0.000000000000e+000
          1.851620547934e+000 4.486892013458e+000 0.000000000000e+000
          1.494152702314e+000 5.145235789232e+000 0.000000000000e+000
          1.353088107040e+000 4.090803091641e+000 0.000000000000e+000
          3.802567455935e+000 5.084697985980e+000 0.000000000000e+000
          1.014840185783e+000 5.494768572296e+000 0.000000000000e+000
          8.831064584820e-001 5.109311190608e+000 0.000000000000e+000
          1.727903958959e+000 1.618384478933e+001 0.000000000000e+000
          1.343261525342e+000 1.651800241408e+001 0.000000000000e+000
          3.308120627291e+000 8.593311644828e+000 0.000000000000e+000
[...]
      <PointData Scalars="LIQUID_PRESSURE">
        <DataArray type="Float64" Name="LIQUID_PRESSURE" format="ascii">
          1.010544943279e+006 1.009724835160e+006 1.011895444464e+006 1.059325749988e+006 1.059420639209e+006 1.059586749720e+006 1.059650197749e+006 1.060267598850e+006 1.060320460777e+006 1.060190123981e+006 1.059482107207e+006 1.060319289150e+006 1.059227396221e+006 1.060042328298e+006 1.059391184478e+006 1.059708414251e+006 1.060005469629e+006 1.059282809603e+006 1.060242689591e+006 1.060320596584e+006 1.060157327905e+006 1.060052558929e+006 1.059527244042e+006 1.060040080667e+006 1.037429462224e+006 1.036043110823e+006 1.035300091347e+006 1.037921823908e+006 1.034875832181e+006 1.037068210989e+006 1.036042258521e+006 1.037428399148e+006 1.035304925035e+006 1.037922085330e+006 1.044661749281e+006 1.043544112175e+006 1.042976095476e+006 1.045358996534e+006 1.044437774105e+006 1.042544114166e+006 1.043543901383e+006 1.044661958722e+006 1.042975903183e+006 1.045360268998e+006 1.032857235499e+006 1.031278230110e+006 1.030339859912e+006 1.033594275101e+006 1.029737023190e+006 1.032487387670e+006 1.031295002175e+006 1.032840038238e+006 1.030392934619e+006 1.033593991782e+006 1.028950168421e+006 1.027323263439e+006 1.026898757549e+006 1.028859635992e+006 1.027276880755e+006 1.046067156752e+006 1.045712908412e+006 1.046606163311e+006 1.046069837978e+006 1.046607794960e+006 1.047637423103e+006 1.048564188393e+006 1.047331461668e+006 1.047629508322e+006 1.039707925014e+006 1.040054935062e+006 1.039232941721e+006 1.039707975527e+006 1.040054825125e+006 1.025687172093e+006 1.025140982042e+006 1.024166163407e+006 1.025911634167e+006 1.024765384205e+006 1.042114543848e+006 1.041061421149e+006 1.040945607122e+006 1.042114510115e+006 1.041061390985e+006 1.059732252103e+006 1.060135989636e+006 1.060028552712e+006 1.059331460617e+006 1.059379378472e+006 1.059213767641e+006 1.059864440622e+006 1.059345701225e+006 1.059176151065e+006 1.059272783431e+006 1.060089541739e+006 1.060096242936e+006 1.059460379814e+006 1.060094527705e+006 1.059932544702e+006 1.059929047283e+006 1.059514343130e+006 1.059977876273e+006 1.059945415444e+006 1.059899050923e+006 1.060162121608e+006 1.060082723611e+006 1.059967609309e+006 1.059993715249e+006 1.059255713509e+006 1.059344859384e+006 1.059240998832e+006 1.060008227112e+006 1.060045630791e+006 1.059441320157e+006 1.059385207881e+006 1.060302761223e+006 1.059569679296e+006 1.060238078285e+006 1.059828239743e+006 1.059910648934e+006 1.059892626605e+006 1.059317811635e+006 1.059185879992e+006 1.059160784315e+006 1.059839317369e+006 1.059327504634e+006 1.059219734593e+006 1.059230195236e+006 1.060004679863e+006 1.059256199351e+006 1.059215742457e+006 1.060106773818e+006 1.059607546979e+006 1.059364224016e+006 1.059648670853e+006 1.059198775080e+006 1.059222275310e+006 1.059891353520e+006 1.059321550792e+006 1.059264863239e+006 1.059821896461e+006 1.059264361910e+006 1.059293717156e+006 1.059315321304e+006 1.059312025122e+006 1.059336302983e+006 1.059217953994e+006 1.059456341290e+006 1.059434000401e+006 1.059309536440e+006 1.059540284609e+006 1.060004364679e+006 1.059843078569e+006 1.060042920446e+006 1.059284135530e+006 1.059883044776e+006 1.060348537523e+006 1.059936366744e+006 1.059724329308e+006 1.059372780205e+006 1.059256055390e+006 1.059632629760e+006 1.059565008030e+006 1.059416727226e+006 1.059229350902e+006 1.059219859771e+006 1.059935169308e+006 1.060025064262e+006 1.059837052193e+006 1.060025495525e+006 1.060256129260e+006 1.059696877232e+006 1.060146618587e+006 1.059572581733e+006 1.059210934616e+006 1.059844868078e+006 1.059330204639e+006 1.059727833092e+006 1.059788464660e+006 1.059988080363e+006 1.059160319993e+006 1.060113274169e+006 1.060050141688e+006 1.059445698807e+006 1.060187240572e+006 1.059289921588e+006 1.059414224819e+006 1.059282177928e+006 1.059362657425e+006 1.059990515346e+006 1.060281999537e+006 1.059663648377e+006 1.059878607110e+006 1.060292086002e+006 1.060273912750e+006 1.059174598538e+006 1.060246872515e+006 1.059567521166e+006 1.060062322166e+006 1.059379501511e+006 1.059360302092e+006 1.060033743283e+006 1.060303072162e+006 1.059940536622e+006 1.059266183647e+006 1.059168710916e+006 1.059284362325e+006 1.059780233954e+006 1.059274244076e+006 1.059301105591e+006 1.059427344638e+006 1.059179059388e+006 1.059746778168e+006 1.060298340706e+006 1.049500828662e+006 1.049498951699e+006 1.059915948137e+006 1.060272759406e+006 1.059130091488e+006 1.059587805207e+006 1.059186477192e+006 1.059935991357e+006 1.059610643597e+006 1.060155492408e+006 1.059223407959e+006 1.059665067093e+006 1.059217177840e+006 1.060095729932e+006 1.060105415854e+006 1.059260272917e+006 1.060271050563e+006 1.059229903468e+006 1.059286871040e+006 1.059762458320e+006 1.059384764393e+006 1.059453815964e+006 1.059551204300e+006 1.060085316080e+006 1.060081994566e+006 1.059205774339e+006 1.060377470221e+006 1.059803725016e+006 1.059498760485e+006 1.059534843924e+006 1.060009273853e+006 1.060006553048e+006 1.060007232571e+006 1.060003098359e+006 1.059624667142e+006 1.059856863526e+006 1.059662092046e+006 1.059183823734e+006 1.059441655083e+006 1.059903337515e+006 1.059878512365e+006 1.060009637173e+006 1.060025820085e+006 1.059737705170e+006 1.060021495253e+006 1.059669539044e+006 1.059994670438e+006 1.059820121368e+006 1.060044953768e+006 1.060027348812e+006 1.050558272604e+006 1.049897374389e+006 1.050021149562e+006 1.051269667581e+006 1.049883820187e+006 1.050508277589e+006 1.049812564514e+006 1.050601510317e+006 1.050055560035e+006 1.051292770830e+006 1.049913300988e+006 1.050525602989e+006 1.052467864822e+006 1.051727728788e+006 1.051629325318e+006 1.053251297617e+006 1.051735249783e+006 1.052254584352e+006 1.051724943017e+006 1.052473665024e+006 1.051610133245e+006 1.053250961250e+006 1.051727099366e+006 1.052256650099e+006 1.056443561585e+006 1.056284409025e+006 1.056027129746e+006 1.056670758847e+006 1.055986076689e+006 1.056432072640e+006 1.056284453263e+006 1.056443629564e+006 1.056027114911e+006 1.056670862426e+006 1.055986103896e+006 1.056432146229e+006 1.055454412088e+006 1.055572954825e+006 1.055035229403e+006 1.055834155332e+006 1.054888500431e+006 1.055513703333e+006 1.055572992711e+006 1.055454533281e+006 1.055035266680e+006 1.055834138720e+006 1.054888568731e+006 1.055513709448e+006 1.057607545516e+006 1.057334490575e+006 1.056988533133e+006 1.057514137203e+006 1.057334398310e+006 1.057607656631e+006 1.056988599893e+006 1.057513426019e+006 1.054774843086e+006 1.053971838151e+006 1.054275851757e+006 1.054601879746e+006 1.054168736540e+006 1.054699738365e+006 1.053971753464e+006 1.054774804651e+006 1.054275939706e+006 1.054601962477e+006 1.054168720211e+006 1.054699697340e+006 1.053021966695e+006 1.053174314922e+006 1.053138564755e+006 1.053020312402e+006 1.053174107530e+006 1.053137794248e+006 1.056884886702e+006 1.057176000512e+006 1.056788972234e+006 1.056885032343e+006 1.057176175573e+006 1.056789060343e+006 1.056920622074e+006 1.056920460716e+006 1.053079897917e+006 1.053425988584e+006 1.052427263743e+006 1.053498399840e+006 1.053079007276e+006 1.053498386414e+006 1.055962954042e+006 1.056076691199e+006 1.055676307312e+006 1.056342070026e+006 1.055962952974e+006 1.056342093552e+006 1.052060758721e+006 1.052020766479e+006 1.052062520601e+006 1.057440345500e+006 1.057662168284e+006 1.057663310419e+006 1.057441468875e+006 1.054190770970e+006 1.054087333208e+006 1.054087388392e+006 1.055449309161e+006 1.055109950214e+006 1.055449342802e+006 1.054978254354e+006 1.054721539122e+006 1.054978254006e+006 1.057047505833e+006 1.057047501904e+006 1.056505693395e+006 1.056813101054e+006 1.056813165064e+006 1.051460241310e+006 1.050675548615e+006 1.051457513161e+006 1.056928481200e+006 1.049973238713e+006 1.049558122456e+006 1.049970993795e+006 1.048733303022e+006 1.048419308258e+006 1.048691512725e+006 1.048393136491e+006 1.059259662928e+006 1.059346583717e+006 1.059538616052e+006 1.059664497126e+006 1.059574488391e+006 1.059860290183e+006 1.060298346439e+006 1.059635789396e+006 1.060290448580e+006 1.059782269166e+006 1.059481374576e+006 1.059869614053e+006 1.059616370339e+006 1.059382504886e+006 1.013893419358e+006 1.016687891257e+006 1.011269522812e+006 1.059988695805e+006 1.059410053374e+006 1.059809261245e+006 1.059988238664e+006 1.059759338261e+006 1.060042200386e+006 1.059171751263e+006 1.059856298300e+006 1.059798326895e+006 1.060284158286e+006 1.059975777490e+006 1.059314287799e+006 1.059369710327e+006 1.059568051913e+006 1.060263971324e+006 1.059422910553e+006 1.060010211938e+006 1.059588453421e+006 1.059979540595e+006 1.059348613911e+006 1.059269685074e+006 1.059298888655e+006 1.059767316811e+006 1.059340118122e+006 1.059980496067e+006 1.059662359076e+006 1.059627680718e+006 1.059893899360e+006 1.059716476152e+006 1.059413953568e+006 1.059954571881e+006 1.059678634451e+006 1.059305365576e+006 1.059682320335e+006 1.059890487984e+006 1.059395451010e+006 1.059064117154e+006 1.059400563631e+006 1.059605527673e+006 1.059356830104e+006 1.059281271281e+006 1.059605838608e+006 1.059743372941e+006 1.059985933822e+006 1.059428554954e+006 1.059605726338e+006 1.059065570830e+006 1.060120780635e+006 1.059233663181e+006 1.059700564504e+006 1.059143030306e+006 1.059265851294e+006 1.059902397924e+006 1.059269170316e+006 1.059260548962e+006 1.059964170788e+006 1.059154286576e+006 1.059171722799e+006 1.059705764275e+006 1.059743805014e+006 1.059316677120e+006 1.059222335537e+006 1.059195030706e+006 1.059344151388e+006 1.059004512942e+006 1.059430653038e+006 1.059636390789e+006 1.059504566727e+006 1.059071758633e+006 1.059209447565e+006 1.059576028321e+006 1.060164731694e+006 1.059910945100e+006 1.059230644314e+006 1.059293379996e+006 1.059231253256e+006 1.059248166068e+006 1.059753439317e+006 1.060049623536e+006 1.059156432173e+006 1.059188768204e+006 1.059868395648e+006 1.060308911442e+006 1.059713345785e+006 1.059237483931e+006 1.059783246137e+006 1.059837316934e+006 1.059490030055e+006 1.059272003715e+006 1.059879885298e+006 1.059372700080e+006 1.059582906803e+006 1.059671814016e+006 1.059665147792e+006 1.059161502062e+006 1.059267524429e+006 1.059723785394e+006 1.060010065912e+006 1.059559352348e+006 1.059184945075e+006 1.059291516852e+006 1.059534969785e+006 1.059593144114e+006 1.060184444151e+006 1.059515936311e+006 1.059178706805e+006 1.059753719015e+006 1.059972413601e+006 1.059703937045e+006 1.059515476779e+006 1.059172854528e+006 1.059574800188e+006 1.060060828027e+006 1.059509064549e+006 1.060084722960e+006 1.059977346725e+006 1.059820002295e+006 1.059180007911e+006 1.059913378043e+006 1.060245762842e+006 1.059249665773e+006 1.059349058925e+006 1.059979417803e+006 1.059485015317e+006 1.059329414443e+006 1.059370961985e+006 1.059991609691e+006 1.059543495316e+006 1.059954641523e+006 1.060195166209e+006 1.059239385933e+006 1.059370497908e+006 1.059662934416e+006 1.059286714732e+006 1.059528233711e+006 1.059642757907e+006 1.059022929947e+006 1.059130546503e+006 1.059376195542e+006 1.060165686136e+006 1.060333982162e+006 1.059098471162e+006 1.059104927013e+006 1.059195296932e+006 1.059661788561e+006 1.059424379421e+006 1.059457411735e+006 1.060300183967e+006 1.060123746102e+006 1.059675250239e+006 1.059518209066e+006 1.059714890546e+006 1.059983974678e+006 1.059800987642e+006 1.059737349467e+006 1.059228675684e+006 1.059342497945e+006 1.059100810593e+006 1.060320692941e+006 1.059158420725e+006 1.059828713963e+006 1.059845796441e+006 1.059551114489e+006 1.059120815479e+006 1.059732778035e+006 1.059215833553e+006 1.059179270654e+006 1.059441311605e+006 1.059859713991e+006 1.059400317451e+006 1.059713398861e+006 1.059733882800e+006 1.059420199294e+006 1.060040026426e+006 1.059221395315e+006 1.059068856782e+006 1.060141275513e+006 1.059545029410e+006 1.060226243821e+006 1.059273556148e+006 1.059704407927e+006 1.059617729879e+006 1.059225598149e+006 1.059805413159e+006 1.059250373114e+006 1.059776992918e+006 1.059292145722e+006 1.059532792485e+006 1.059737304999e+006 1.059063718298e+006 1.059098240289e+006 1.059637804409e+006 1.007422990788e+006 1.006487340565e+006 1.005061286497e+006 1.059425295290e+006 1.059585634285e+006 1.060153714273e+006 1.059935372382e+006 1.059395159159e+006 1.060012645489e+006 1.059434474909e+006 1.059309962244e+006 1.059914500240e+006 1.059454434580e+006 1.047935582670e+006 1.047953655284e+006 1.059586352056e+006 1.060001120565e+006 1.059819529520e+006 1.059471614413e+006 1.059671784839e+006 1.059222832385e+006 1.059737314245e+006 1.059326128533e+006 1.059833368359e+006 1.059648087231e+006 1.059519803545e+006 1.059360758781e+006 1.059348389408e+006 1.010483709071e+006 1.009656605574e+006 1.059940021436e+006 1.059203203612e+006 1.059276250115e+006 1.059744876881e+006 1.059255139382e+006 1.059476143740e+006 1.057781248285e+006 1.057779723412e+006 1.057776016266e+006 1.057774876805e+006 1.059318771474e+006 1.059378816147e+006 1.059160479185e+006 1.059183416373e+006 1.057413069095e+006 1.057560334458e+006 1.057500964752e+006 1.057558601445e+006 1.059681635721e+006 1.059253108401e+006 1.059581926038e+006 1.059482185627e+006 1.059608135252e+006 1.059274908709e+006 1.060070660907e+006 1.060116253429e+006 1.059215236783e+006 1.059122940863e+006 1.060294917804e+006 1.059244123610e+006 1.059103735874e+006 1.059614689712e+006 1.008770107975e+006 1.007408936935e+006 1.059775330023e+006 1.060301166741e+006 1.059916583028e+006 1.060031746452e+006 1.059795662860e+006 1.059721819873e+006 1.059244126676e+006 1.047104209240e+006 1.047091991892e+006 1.059523510034e+006 1.059826700580e+006 1.058880862318e+006 1.059403048033e+006 1.059314226606e+006 1.059677252474e+006 1.060104841448e+006 1.059840855792e+006 1.058937116558e+006 1.003065663369e+006 1.002590183734e+006 1.059525638559e+006 1.060017410945e+006 1.059988101566e+006 1.059178762555e+006 1.059919895920e+006 1.059796345614e+006 1.060009926807e+006 1.059422242624e+006 1.057792513346e+006 1.057824750634e+006 1.057746281027e+006 1.058328126352e+006 1.058135223984e+006 1.057807979870e+006 1.058351633949e+006 1.058080826584e+006 1.058202559211e+006 1.058295756065e+006 1.058078988442e+006 1.058279591512e+006 1.058248562217e+006 1.058451715854e+006 1.058350867969e+006 1.058488414911e+006 1.058362017353e+006 1.058531854210e+006 1.058505491181e+006 1.058706991367e+006 1.058706567916e+006 1.058702974821e+006 1.058701632838e+006 1.058694558591e+006 1.058713548674e+006 1.058552705129e+006 1.058715652435e+006 1.058554585588e+006 1.059123433334e+006 1.058933683094e+006 1.059014022742e+006 1.058937279337e+006 1.059016297266e+006 1.057915274787e+006 1.057854107882e+006 1.058077307453e+006 1.058099555761e+006 1.057854812901e+006 1.057914881092e+006 1.058067306266e+006 1.058072495613e+006 1.058373631984e+006 1.058553670240e+006 1.058383396422e+006 1.058576736228e+006 1.058357387635e+006 1.058470106255e+006 1.058352585985e+006 1.058468611695e+006 1.058748432308e+006 1.058775686501e+006 1.058749212987e+006 1.058771043609e+006 1.058500424844e+006 1.058399433705e+006 1.058580627364e+006 1.058816130242e+006 1.058374736122e+006 1.058596374383e+006 1.058399799188e+006 1.058499977103e+006 1.058575375942e+006 1.058814523798e+006 1.058375532537e+006 1.058597409636e+006 1.058592535715e+006 1.058671835545e+006 1.058737163901e+006 1.058587367989e+006 1.058660036941e+006 1.058735836191e+006 1.059123789629e+006 1.058989956437e+006 1.059017642095e+006 1.059113096744e+006 1.058981240970e+006 1.059015071920e+006 1.058692520405e+006 1.059047576092e+006 1.058677685903e+006 1.058700862869e+006 1.059108253860e+006 1.058712267981e+006 1.059317531098e+006 1.058862980640e+006 1.059301210150e+006 1.058899849798e+006 1.058675166216e+006 1.059067346149e+006 1.058680228372e+006 1.059054309981e+006 1.057910194405e+006 1.057853663771e+006 1.057918269842e+006 1.057910907639e+006 1.057853834357e+006 1.057918755781e+006 1.058075840398e+006 1.058240940840e+006 1.058073664916e+006 1.058241735114e+006 1.058594082972e+006 1.058599305011e+006 1.058695994070e+006 1.058691676613e+006 1.058497898225e+006 1.058478465586e+006 1.059185031703e+006 1.059669688012e+006 1.059188708375e+006 1.059573756457e+006 1.059053549610e+006 1.059033566245e+006 1.058992463443e+006 1.059005073457e+006 1.058849291487e+006 1.059245312179e+006 1.058869903708e+006 1.059229107932e+006 1.058852476810e+006 1.058978159251e+006 1.058736456959e+006 1.058961078895e+006 1.058718598120e+006 1.058782851684e+006 1.059719489744e+006 1.058881958396e+006 1.059089682803e+006 1.059729093776e+006 1.059554436945e+006 1.059525804775e+006 1.059225673000e+006 1.059216083979e+006 1.059263736838e+006 1.059234198268e+006 1.059218744025e+006 1.058957981626e+006 1.059159232080e+006 1.058817126404e+006 1.059147222427e+006 1.059023341154e+006 1.058927625289e+006 1.059041961701e+006 1.059023890228e+006 1.058959948072e+006 1.059586778054e+006 1.059911323925e+006 1.059302838671e+006 1.059507102356e+006 1.059505942785e+006 1.059544588285e+006 1.059489169644e+006 1.000000000000e+006 1.000000000000e+006 1.002589244315e+006 1.059731488105e+006 1.060065450449e+006 1.059491594520e+006 1.059920997655e+006 1.059867553672e+006 1.059380056181e+006 1.059989094707e+006 1.059590070300e+006 1.059965845114e+006 1.059342908998e+006 1.059059598355e+006 1.059038123597e+006 1.059375056450e+006 1.059487459935e+006 1.059163433370e+006 1.059536925656e+006 1.059984594594e+006 1.059327390596e+006 1.059076415781e+006 1.059226221559e+006 1.059655816296e+006 1.059332170813e+006 1.059778384423e+006 1.046674439214e+006 1.046674649742e+006 1.060158024437e+006 1.057246561088e+006 1.057247128667e+006 1.059113388987e+006 1.059474871792e+006 1.059893286565e+006 1.058986587643e+006 1.059377235903e+006 1.059175923006e+006 1.059665757018e+006 1.059199529327e+006 1.058966694616e+006 1.059170989050e+006 1.059283101192e+006 1.017781343302e+006 1.016658958968e+006 1.059896233439e+006 1.059530532358e+006 1.018387273777e+006 1.059976794630e+006 1.059528232503e+006 1.059986831070e+006 1.059298904683e+006 1.059541700323e+006 1.005057585072e+006 1.060112280959e+006 1.060023761331e+006 1.059265407580e+006 1.059129197446e+006 1.060065240819e+006 1.057781842731e+006 1.057780240633e+006 1.060124022367e+006 1.059693917157e+006 1.059492931608e+006 1.059620560161e+006 1.059996876817e+006 1.059827993531e+006 1.059354834548e+006 1.059617978679e+006 1.059682324655e+006 1.059642542900e+006 1.059385716795e+006 1.059370304797e+006 1.060002809383e+006 1.059769267803e+006 1.060022798095e+006 1.059820598018e+006 1.059537510284e+006 1.059311732475e+006 1.059028190352e+006 1.020402255451e+006 1.059503044060e+006 1.008540428601e+006 1.059049935902e+006 1.059183062208e+006 1.059298398372e+006 1.059431045602e+006 1.059435737214e+006 1.060020731021e+006 1.059263891603e+006 1.059845705513e+006 1.059991911408e+006 1.059974448564e+006 1.060015411565e+006 1.060024194823e+006 1.059936429289e+006 1.019056066763e+006 1.021796529765e+006 1.015924665181e+006 1.023553891405e+006 1.059815148000e+006 1.022123878947e+006 1.014028719843e+006 1.059274429315e+006 1.059794062605e+006 1.059942686249e+006 1.059946300702e+006 1.022165099832e+006 1.059506068548e+006 1.059505334758e+006 1.057338658391e+006 1.057338707905e+006 1.058102354560e+006 1.058100086926e+006 1.060015658336e+006 1.059807215785e+006 1.058044283920e+006 1.058043744384e+006 1.057932856651e+006 1.057951949955e+006 1.059793432464e+006 1.059914873324e+006 
        </DataArray>
        <DataArray type="Float64" Name="MEAN_PRESSURE" format="ascii">