<?xml version="1.0"?>
<VTKFile type="UnstructuredGrid" version="0.1" byte_order="LittleEndian">
  <UnstructuredGrid>
    <Piece NumberOfPoints="963" NumberOfCells="1758">
      <Points>
        <DataArray type="Float64" NumberOfComponents="3" format="ascii">
          1.600262034769e+002 1.257989505921e+001 0.000000000000e+000
          1.635346199106e+002 2.000000000000e+001 0.000000000000e+000
          1.554515002484e+002 2.000000000000e+001 0.000000000000e+000
          3.459306441575e+000 1.667621982453e+001 0.000000000000e+000
          3.062266634850e+000 1.705413688405e+001 0.000000000000e+000
          2.873380769063e+000 1.650527725632e+001 0.000000000000e+000
          1.514088444034e+000 1.865189448105e+001 0.000000000000e+000
          1.967902677551e+000 1.834103489750e+001 0.000000000000e+000
          2.034564522234e+000 1.890806711991e+001 0.000000000000e+000
          2.478275273162e+000 1.702762299110e+001 0.000000000000e+000
          2.952621433467e+000 1.774357373580e+001 0.000000000000e+000
          2.237893542067e+000 1.782457469610e+001 0.000000000000e+000
          3.313583922780e+000 3.274674552047e+000 0.000000000000e+000
          2.561432712787e+000 3.156040447793e+000 0.000000000000e+000
          3.047531989640e+000 2.714594415171e+000 0.000000000000e+000
          2.750804692284e+000 3.936058190693e+000 0.000000000000e+000
          2.599039179818e+000 2.451529939148e+000 0.000000000000e+000
          3.139686649742e+000 2.186924052088e+000 0.000000000000e+000
          1.919984553221e+000 3.358010194268e+000 0.000000000000e+000
          1.960900304591e+000 2.773319745251e+000 0.000000000000e+000
          1.894565400391e+000 1.733316857565e+001 0.000000000000e+000
          0.000000000000e+000 1.538461538461e+001 0.000000000000e+000
          5.816229249735e-001 1.567919247147e+001 0.000000000000e+000
          0.000000000000e+000 1.589743589743e+001 0.000000000000e+000
          9.766405669483e+001 2.000000000000e+001 0.000000000000e+000
          1.010672711393e+002 1.500000000000e+001 0.000000000000e+000
          1.029329279907e+002 2.000000000000e+001 0.000000000000e+000
          9.588503785413e+001 1.500000000000e+001 0.000000000000e+000
          1.039231647117e+002 1.000000000000e+001 0.000000000000e+000
          9.860830811271e+001 1.000000000000e+001 0.000000000000e+000
          1.010672711397e+002 5.000000000000e+000 0.000000000000e+000
          9.766405669557e+001 0.000000000000e+000 0.000000000000e+000
          1.029329279915e+002 0.000000000000e+000 0.000000000000e+000
          9.588503785449e+001 5.000000000000e+000 0.000000000000e+000
          7.892434178002e+001 2.000000000000e+001 0.000000000000e+000
          8.173808356948e+001 1.500000000000e+001 0.000000000000e+000
          8.328058896910e+001 2.000000000000e+001 0.000000000000e+000
          7.679274808893e+001 1.514423393202e+001 0.000000000000e+000
          7.970503892166e+001 1.000000000000e+001 0.000000000000e+000
          8.409930620613e+001 1.000000000000e+001 0.000000000000e+000
          8.173808356980e+001 5.000000000000e+000 0.000000000000e+000
          7.892434178065e+001 0.000000000000e+000 0.000000000000e+000
          8.328058896976e+001 0.000000000000e+000 0.000000000000e+000
          7.679274808925e+001 4.855766067979e+000 0.000000000000e+000
          1.084583939765e+002 2.000000000000e+001 0.000000000000e+000
          1.122011528880e+002 1.500000000000e+001 0.000000000000e+000
          1.142529496098e+002 2.000000000000e+001 0.000000000000e+000
          1.065018792644e+002 1.500000000000e+001 0.000000000000e+000
          1.153419838410e+002 1.000000000000e+001 0.000000000000e+000
          1.094968549120e+002 1.000000000000e+001 0.000000000000e+000
          1.122011528884e+002 5.000000000000e+000 0.000000000000e+000
          1.084583939773e+002 0.000000000000e+000 0.000000000000e+000
          1.142529496106e+002 0.000000000000e+000 0.000000000000e+000
          1.065018792648e+002 5.000000000000e+000 0.000000000000e+000
          1.181779812237e+002 1.500000000000e+001 0.000000000000e+000
          1.203297004775e+002 2.000000000000e+001 0.000000000000e+000
          1.214717707847e+002 1.000000000000e+001 0.000000000000e+000
          1.181779812242e+002 5.000000000000e+000 0.000000000000e+000
          1.203297004784e+002 0.000000000000e+000 0.000000000000e+000
          7.477039199538e+001 2.000000000000e+001 0.000000000000e+000
          7.551483469771e+001 1.000000000000e+001 0.000000000000e+000
          7.296959467356e+001 1.385646386579e+001 0.000000000000e+000
          7.477039199599e+001 0.000000000000e+000 0.000000000000e+000
          7.296959467379e+001 6.143536134207e+000 0.000000000000e+000
          6.918477198508e+001 1.366665532880e+001 0.000000000000e+000
          6.746477463053e+001 1.000000000000e+001 0.000000000000e+000
          7.151921701478e+001 1.000000000000e+001 0.000000000000e+000
          6.918477198529e+001 6.333344671202e+000 0.000000000000e+000
          9.263986346551e+001 2.000000000000e+001 0.000000000000e+000
          9.094345943471e+001 1.500000000000e+001 0.000000000000e+000
          9.354026529380e+001 1.000000000000e+001 0.000000000000e+000
          9.263986346623e+001 0.000000000000e+000 0.000000000000e+000
          9.094345943506e+001 5.000000000000e+000 0.000000000000e+000
          1.244344522558e+002 1.503312574389e+001 0.000000000000e+000
          1.267023895482e+002 2.000000000000e+001 0.000000000000e+000
          1.285510028831e+002 1.020485663255e+001 0.000000000000e+000
          1.244344522563e+002 5.033125743893e+000 0.000000000000e+000
          1.267023895491e+002 0.000000000000e+000 0.000000000000e+000
          8.623136018348e+001 1.500000000000e+001 0.000000000000e+000
          8.784898578901e+001 2.000000000000e+001 0.000000000000e+000
          8.870757443665e+001 1.000000000000e+001 0.000000000000e+000
          8.623136018382e+001 5.000000000000e+000 0.000000000000e+000
          8.784898578969e+001 0.000000000000e+000 0.000000000000e+000
          4.872472752737e+000 0.000000000000e+000 0.000000000000e+000
          4.204479229380e+000 6.412840757122e-001 0.000000000000e+000
          4.157376851380e+000 0.000000000000e+000 0.000000000000e+000
          5.192892237051e+000 7.280355562789e-001 0.000000000000e+000
          1.306630304579e+000 6.212843344151e-001 0.000000000000e+000
          1.050228457081e+000 0.000000000000e+000 0.000000000000e+000
          1.614006202528e+000 0.000000000000e+000 0.000000000000e+000
          1.266763055794e+001 1.554696422866e+001 0.000000000000e+000
          1.263589100638e+001 1.657720348306e+001 0.000000000000e+000
          1.174268578662e+001 1.633018318031e+001 0.000000000000e+000
          6.588835695415e+000 7.505681085529e+000 0.000000000000e+000
          6.456871838389e+000 6.658671683861e+000 0.000000000000e+000
          7.208099140752e+000 7.038822846307e+000 0.000000000000e+000
          4.412623338166e+000 9.138856431549e+000 0.000000000000e+000
          4.024185797397e+000 8.708923235630e+000 0.000000000000e+000
          4.601447447338e+000 8.507292699647e+000 0.000000000000e+000
          5.325995059827e-001 6.308307298123e+000 0.000000000000e+000
          0.000000000000e+000 6.666666666655e+000 0.000000000000e+000
          0.000000000000e+000 6.153846153835e+000 0.000000000000e+000
          3.986461521768e+000 8.146114708182e+000 0.000000000000e+000
          2.411603373059e+000 6.510912162016e+000 0.000000000000e+000
          1.807525763324e+000 6.938080373464e+000 0.000000000000e+000
          1.686779352680e+000 6.178928843543e+000 0.000000000000e+000
          2.510760620997e+000 7.229076682239e+000 0.000000000000e+000
          3.166991983438e+000 6.906135870389e+000 0.000000000000e+000
          3.452788915829e+000 6.276851216781e+000 0.000000000000e+000
          3.340122000742e+000 5.656365440432e+000 0.000000000000e+000
          4.047936562877e+000 5.873561587395e+000 0.000000000000e+000
          1.802463974828e+000 1.292744708026e+001 0.000000000000e+000
          1.383967161336e+000 1.330299552906e+001 0.000000000000e+000
          1.329690820161e+000 1.266495373033e+001 0.000000000000e+000
          2.267922292389e+000 1.431116835808e+001 0.000000000000e+000
          2.854613987538e+000 1.466581611369e+001 0.000000000000e+000
          2.339869278674e+000 1.493776402241e+001 0.000000000000e+000
          4.690956878046e+000 3.115726773737e+000 0.000000000000e+000
          4.014773718330e+000 2.850429494150e+000 0.000000000000e+000
          4.643493383296e+000 2.293565471327e+000 0.000000000000e+000
          5.186083944243e+000 1.661927139510e+000 0.000000000000e+000
          5.452965511439e+000 2.679881546544e+000 0.000000000000e+000
          5.360460104304e+000 3.539902157655e+000 0.000000000000e+000
          6.197986304192e+000 3.115706366113e+000 0.000000000000e+000
          7.929356606585e-001 1.634705420870e+001 0.000000000000e+000
          1.222819867503e+000 1.599517159419e+001 0.000000000000e+000
          1.215723647926e+000 1.546209040954e+001 0.000000000000e+000
          1.770601276021e+000 1.521217632514e+001 0.000000000000e+000
          1.242830150061e+000 1.493919370237e+001 0.000000000000e+000
          1.166444124506e+000 4.610115997312e+000 0.000000000000e+000
          1.851620547934e+000 4.486892013458e+000 0.000000000000e+000
          1.494152702314e+000 5.145235789232e+000 0.000000000000e+000
          1.353088107040e+000 4.090803091641e+000 0.000000000000e+000
          3.802567455935e+000 5.084697985980e+000 0.000000000000e+000
          1.014840185783e+000 5.494768572296e+000 0.000000000000e+000
          8.831064584820e-001 5.109311190608e+000 0.000000000000e+000
          1.727903958959e+000 1.618384478933e+001 0.000000000000e+000
          1.343261525342e+000 1.651800241408e+001 0.000000000000e+000
          3.308120627291e+000 8.593311644828e+000 0.000000000000e+000
[...]
      <PointData Scalars="LIQUID_PRESSURE">
        <DataArray type="Float64" Name="LIQUID_PRESSURE" format="ascii">
          9.935480727455e+005 9.968679747710e+005 9.984851841086e+005 1.001918649979e+006 1.002082615016e+006 1.002299058232e+006 1.002246731912e+006 1.002931133175e+006 1.002989906939e+006 1.002945856477e+006 1.002182814395e+006 1.003027784181e+006 1.001833750601e+006 1.002775702832e+006 1.002055926701e+006 1.002405399249e+006 1.002754416599e+006 1.001918287295e+006 1.002900569067e+006 1.002984148553e+006 1.002796132088e+006 1.002839779650e+006 1.002334029919e+006 1.002828084039e+006 1.001606766854e+006 1.001570735530e+006 1.001529275974e+006 1.001609701028e+006 1.001512354839e+006 1.001597453582e+006 1.001570157924e+006 1.001606352472e+006 1.001530220990e+006 1.001609835285e+006 1.001902458559e+006 1.001830308888e+006 1.001822688646e+006 1.001916549972e+006 1.001913216639e+006 1.001785499581e+006 1.001830384903e+006 1.001902177628e+006 1.001822784823e+006 1.001915879598e+006 1.001463557160e+006 1.001401313123e+006 1.001367749608e+006 1.001466250306e+006 1.001349924199e+006 1.001451399223e+006 1.001402107278e+006 1.001459865932e+006 1.001370033150e+006 1.001466357585e+006 1.001361388965e+006 1.001286399990e+006 1.001269781891e+006 1.001351943063e+006 1.001284758045e+006 1.001953422474e+006 1.001905012282e+006 1.001942682087e+006 1.001954305547e+006 1.001944880342e+006 1.001913483548e+006 1.002005524344e+006 1.002071686963e+006 1.001912349242e+006 1.001736610089e+006 1.001699160591e+006 1.001708563076e+006 1.001736646050e+006 1.001699102413e+006 1.001231941775e+006 1.001200267317e+006 1.001232696625e+006 1.001243158517e+006 1.001220078666e+006 1.001832889089e+006 1.001716385853e+006 1.001728075020e+006 1.001832911460e+006 1.001716366768e+006 1.002586220533e+006 1.002855423578e+006 1.002721763946e+006 1.002101165064e+006 1.001970272814e+006 1.001853691788e+006 1.002464619680e+006 1.002456002630e+006 1.002238743397e+006 1.002324086426e+006 1.002982647892e+006 1.002946608324e+006 1.002333322127e+006 1.002935622636e+006 1.002636257044e+006 1.002745257671e+006 1.002338225996e+006 1.002861882895e+006 1.002820598286e+006 1.002599988877e+006 1.002916195340e+006 1.002733765569e+006 1.002585415988e+006 1.002743270392e+006 1.001865309045e+006 1.001911183710e+006 1.001841953565e+006 1.002726364923e+006 1.002681090885e+006 1.002025829974e+006 1.001969164250e+006 1.003043882976e+006 1.002297446022e+006 1.002999380715e+006 1.002672207382e+006 1.002634854056e+006 1.002720520545e+006 1.002089432079e+006 1.001901506002e+006 1.001863425016e+006 1.002617512306e+006 1.002098299848e+006 1.001837808366e+006 1.001839959169e+006 1.002635283994e+006 1.001853356050e+006 1.001843891956e+006 1.002708356866e+006 1.002178685127e+006 1.001945823641e+006 1.002262403992e+006 1.001859423564e+006 1.001950504121e+006 1.002512807450e+006 1.001914323253e+006 1.001847983184e+006 1.002550153900e+006 1.001859430339e+006 1.002027764903e+006 1.002074281356e+006 1.001903109505e+006 1.002097252281e+006 1.001919430225e+006 1.002025005251e+006 1.002127030430e+006 1.002062233082e+006 1.002234022239e+006 1.002746628695e+006 1.002683127972e+006 1.002800950442e+006 1.001878280696e+006 1.002488383334e+006 1.003034714444e+006 1.002647543929e+006 1.002581007276e+006 1.002107566909e+006 1.001902825238e+006 1.002343803608e+006 1.002141895709e+006 1.001991222413e+006 1.001945386382e+006 1.001975618111e+006 1.002568014294e+006 1.002776751750e+006 1.002673667604e+006 1.002785870730e+006 1.002998191872e+006 1.002314349767e+006 1.002892362585e+006 1.002160653256e+006 1.001859201564e+006 1.002575372553e+006 1.001933819179e+006 1.002448679145e+006 1.002641502695e+006 1.002787836063e+006 1.001815072821e+006 1.002735929876e+006 1.002673466088e+006 1.002122092543e+006 1.002945453481e+006 1.002054120232e+006 1.002219932169e+006 1.001887799091e+006 1.001953509891e+006 1.002610948147e+006 1.003001220698e+006 1.002393484509e+006 1.002782340012e+006 1.003020698311e+006 1.003004652422e+006 1.001883652514e+006 1.002994136427e+006 1.002158091706e+006 1.002810841370e+006 1.001979255740e+006 1.001934644750e+006 1.002751278668e+006 1.002972162071e+006 1.002548281502e+006 1.001860420595e+006 1.001832101386e+006 1.001858735429e+006 1.002375763349e+006 1.001882709227e+006 1.001931254823e+006 1.002013410843e+006 1.001854393175e+006 1.002333850003e+006 1.002989952515e+006 1.002201279624e+006 1.002195963330e+006 1.002670761236e+006 1.003000278048e+006 1.001840119196e+006 1.002368064420e+006 1.001933841264e+006 1.002880079200e+006 1.002213639217e+006 1.002974334970e+006 1.001866040254e+006 1.002260869220e+006 1.001883767825e+006 1.002729075611e+006 1.002875893215e+006 1.001963940443e+006 1.002940068086e+006 1.001841432366e+006 1.001896525421e+006 1.002495770825e+006 1.001960490018e+006 1.002272194840e+006 1.002175219345e+006 1.002711936874e+006 1.002695283715e+006 1.001816537774e+006 1.003089599430e+006 1.002401181656e+006 1.002339279178e+006 1.002351280467e+006 1.002865997271e+006 1.002826325284e+006 1.002857818877e+006 1.002869155671e+006 1.002474965855e+006 1.002661417287e+006 1.002526954435e+006 1.001844550696e+006 1.002271863098e+006 1.002700984415e+006 1.002683301640e+006 1.002752835344e+006 1.002773138726e+006 1.002594428745e+006 1.002769132223e+006 1.002527271226e+006 1.002761786210e+006 1.002654676015e+006 1.002796323560e+006 1.002768804989e+006 1.001992312758e+006 1.002058726230e+006 1.002234928184e+006 1.002228615206e+006 1.002198890689e+006 1.002009159950e+006 1.002022824838e+006 1.002012037640e+006 1.002274186503e+006 1.002238127796e+006 1.002217778997e+006 1.002017651713e+006 1.002133050546e+006 1.002013685232e+006 1.002184405451e+006 1.002447161845e+006 1.002208476312e+006 1.002066867833e+006 1.002013095192e+006 1.002138320838e+006 1.002169015827e+006 1.002446676414e+006 1.002201815304e+006 1.002069047799e+006 1.002269361001e+006 1.002320449991e+006 1.002280473094e+006 1.002311443397e+006 1.002255429476e+006 1.002281088008e+006 1.002320449541e+006 1.002269342079e+006 1.002280446428e+006 1.002311415979e+006 1.002255431124e+006 1.002281081420e+006 1.002164567652e+006 1.002435393174e+006 1.002194827584e+006 1.002289569383e+006 1.002138745602e+006 1.002230959408e+006 1.002435386432e+006 1.002164629617e+006 1.002194793252e+006 1.002289549533e+006 1.002138746349e+006 1.002230958385e+006 1.002442007281e+006 1.002345137386e+006 1.002179047940e+006 1.002255747859e+006 1.002345123231e+006 1.002442038774e+006 1.002179009145e+006 1.002255364774e+006 1.002368300919e+006 1.002093830543e+006 1.002461439174e+006 1.002157107299e+006 1.002398308485e+006 1.002345250877e+006 1.002093755671e+006 1.002368286990e+006 1.002461591876e+006 1.002157132543e+006 1.002398318174e+006 1.002345241590e+006 1.002065259433e+006 1.002022499453e+006 1.002143960027e+006 1.002064139089e+006 1.002022760379e+006 1.002143603987e+006 1.002327143521e+006 1.002412712661e+006 1.002299137564e+006 1.002327117158e+006 1.002412779845e+006 1.002299182392e+006 1.002168810489e+006 1.002169014705e+006 1.002312667688e+006 1.002219558758e+006 1.002056347268e+006 1.002118906050e+006 1.002311959854e+006 1.002119077306e+006 1.002331860589e+006 1.002243891623e+006 1.002257549211e+006 1.002308607317e+006 1.002331852281e+006 1.002308598561e+006 1.002101760806e+006 1.002224828790e+006 1.002103555129e+006 1.002343157413e+006 1.002473351496e+006 1.002473315391e+006 1.002343311859e+006 1.002333177260e+006 1.002090036038e+006 1.002090040863e+006 1.002306147273e+006 1.002182191627e+006 1.002306160420e+006 1.002317642147e+006 1.002273889298e+006 1.002317619582e+006 1.002336187968e+006 1.002336134633e+006 1.002264700841e+006 1.002375870572e+006 1.002375887381e+006 1.002231203900e+006 1.002039787267e+006 1.002229883024e+006 1.002279249611e+006 1.002019135404e+006 1.002038707605e+006 1.002013689541e+006 1.002079537997e+006 1.001899967559e+006 1.002070499719e+006 1.001891090860e+006 1.002074001665e+006 1.002121170264e+006 1.002422143685e+006 1.002554217531e+006 1.002252214132e+006 1.002589822600e+006 1.003024858658e+006 1.002348455164e+006 1.002979847708e+006 1.002622503899e+006 1.002264709134e+006 1.002474849477e+006 1.002469557072e+006 1.002057308326e+006 1.004178395375e+006 1.000999187865e+006 9.990499283993e+005 1.002868210541e+006 1.002207589940e+006 1.002709884460e+006 1.002841950797e+006 1.002404233002e+006 1.002775780604e+006 1.001806374216e+006 1.002524385535e+006 1.002396714469e+006 1.003018505042e+006 1.002604602559e+006 1.002137622066e+006 1.002160258602e+006 1.002424249483e+006 1.002997078286e+006 1.002093412108e+006 1.002880648828e+006 1.002434135800e+006 1.002807050489e+006 1.002080477757e+006 1.002099728040e+006 1.002113446750e+006 1.002669805023e+006 1.002084974292e+006 1.002841590840e+006 1.002474298791e+006 1.002626022477e+006 1.002831738466e+006 1.002585535883e+006 1.002225073318e+006 1.002625938246e+006 1.002264147786e+006 1.001872421424e+006 1.002490053963e+006 1.002870464012e+006 1.002385936484e+006 1.001960547150e+006 1.001974049935e+006 1.002307156004e+006 1.002360789664e+006 1.002349815490e+006 1.002655515736e+006 1.002659986252e+006 1.002857622066e+006 1.002486142567e+006 1.002629247528e+006 1.002012366410e+006 1.002912125304e+006 1.001917990032e+006 1.002460814992e+006 1.002353093796e+006 1.002450671215e+006 1.002531199268e+006 1.001876058891e+006 1.002044848145e+006 1.002848348874e+006 1.001914400086e+006 1.001979847823e+006 1.002601303203e+006 1.002606684810e+006 1.002022494945e+006 1.002082606482e+006 1.002043584229e+006 1.002346780747e+006 1.002025358252e+006 1.002544360544e+006 1.002631036941e+006 1.002602301363e+006 1.002042380373e+006 1.002238715628e+006 1.002774339187e+006 1.002898433375e+006 1.002545512691e+006 1.002140941421e+006 1.002200310190e+006 1.001940055203e+006 1.001852511108e+006 1.002596616728e+006 1.002881248615e+006 1.001790621721e+006 1.001871418056e+006 1.002615661290e+006 1.003026842242e+006 1.002483043820e+006 1.001937399033e+006 1.002682561393e+006 1.002816243593e+006 1.002457213005e+006 1.002060838462e+006 1.002895641801e+006 1.002327601403e+006 1.002436672597e+006 1.002361082125e+006 1.002369804168e+006 1.001856808443e+006 1.002038076971e+006 1.002559585618e+006 1.002923446191e+006 1.002355138292e+006 1.001898588556e+006 1.002218577829e+006 1.002617098399e+006 1.002628517838e+006 1.002945592136e+006 1.002102465905e+006 1.001931409331e+006 1.002806493920e+006 1.002798995837e+006 1.002794465458e+006 1.002450281699e+006 1.001834094088e+006 1.002426440500e+006 1.002918688018e+006 1.002332465860e+006 1.002916787778e+006 1.002916537304e+006 1.002627857683e+006 1.001930402750e+006 1.002879242521e+006 1.002915499727e+006 1.001839972715e+006 1.002030764629e+006 1.002661596475e+006 1.002369471654e+006 1.002103028728e+006 1.002180563198e+006 1.002890527782e+006 1.002360702335e+006 1.002580631552e+006 1.002944591911e+006 1.002080070212e+006 1.002296716608e+006 1.002611320545e+006 1.002158906627e+006 1.002247135062e+006 1.002723351097e+006 1.002037879025e+006 1.002159650499e+006 1.002067805698e+006 1.002944796676e+006 1.003039998544e+006 1.001908010855e+006 1.001991656659e+006 1.002116362446e+006 1.002694498918e+006 1.002358988211e+006 1.002395395108e+006 1.003002963576e+006 1.002740086411e+006 1.002383537737e+006 1.002509099024e+006 1.002840576302e+006 1.002887345714e+006 1.002579092878e+006 1.002509588592e+006 1.002094289165e+006 1.002303370022e+006 1.002004251998e+006 1.003030804125e+006 1.001786442175e+006 1.002659392361e+006 1.002492683973e+006 1.002151269262e+006 1.001973793358e+006 1.002749206920e+006 1.001924832360e+006 1.001816590152e+006 1.002259297958e+006 1.002811509975e+006 1.002318199904e+006 1.002701073329e+006 1.002484442123e+006 1.002285799344e+006 1.002869560618e+006 1.002095805618e+006 1.001773732732e+006 1.002864539914e+006 1.002233007822e+006 1.002932635135e+006 1.002020932223e+006 1.002796108116e+006 1.002366607849e+006 1.001831367197e+006 1.002796798853e+006 1.002182461521e+006 1.002876400212e+006 1.001950176953e+006 1.002362569600e+006 1.002589810065e+006 1.001919415566e+006 1.001950425158e+006 1.002676009931e+006 9.969308815662e+005 9.970991297786e+005 9.977998936103e+005 1.002196025140e+006 1.002433495557e+006 1.002904364913e+006 1.002666489380e+006 1.002032208379e+006 1.002865437043e+006 1.002223988337e+006 1.001883022149e+006 1.002785761139e+006 1.002261602632e+006 1.002156613723e+006 1.002164390031e+006 1.002432583204e+006 1.002864834163e+006 1.002435045260e+006 1.002241158469e+006 1.002698460451e+006 1.001886766814e+006 1.002669038244e+006 1.002085843434e+006 1.002709230042e+006 1.002239259306e+006 1.002567860285e+006 1.002251038396e+006 1.002176521799e+006 9.940930867433e+005 9.949512515534e+005 1.002650119911e+006 1.001861974211e+006 1.001952739219e+006 1.002528585122e+006 1.001990547242e+006 1.002279251588e+006 1.002336007837e+006 1.002398388167e+006 1.002333021447e+006 1.002393577091e+006 1.001899478085e+006 1.002168973621e+006 1.001920287468e+006 1.001839824631e+006 1.002168371767e+006 1.002369006155e+006 1.002452229428e+006 1.002368498313e+006 1.002794273440e+006 1.002312914981e+006 1.002170443956e+006 1.002445589802e+006 1.002214116168e+006 1.001885168782e+006 1.002786271806e+006 1.002932475951e+006 1.001866652827e+006 1.001784452379e+006 1.002985620507e+006 1.001826971377e+006 1.002115557094e+006 1.002705180830e+006 9.957823841504e+005 9.964498784681e+005 1.002625240900e+006 1.002967699885e+006 1.002559273128e+006 1.002769473369e+006 1.002680653648e+006 1.002574040641e+006 1.002061443445e+006 1.001837175970e+006 1.001834276683e+006 1.002703436652e+006 1.002641536379e+006 1.002077838131e+006 1.002664086626e+006 1.002641568325e+006 1.002728400534e+006 1.002871115254e+006 1.002506484069e+006 1.001948471455e+006 9.986280251351e+005 9.988557049339e+005 1.002745981323e+006 1.002888930994e+006 1.002828261570e+006 1.002170829304e+006 1.002675728723e+006 1.002637531645e+006 1.002766875394e+006 1.002511461073e+006 1.002141879947e+006 1.002336949103e+006 1.002396715886e+006 1.002565424922e+006 1.002414589877e+006 1.002328573623e+006 1.002581240694e+006 1.002353298357e+006 1.002321985663e+006 1.002338556887e+006 1.002177522424e+006 1.002300436318e+006 1.002327591018e+006 1.002462667509e+006 1.002233111948e+006 1.002411207287e+006 1.002228328361e+006 1.002460873206e+006 1.002334098886e+006 1.002462940086e+006 1.002478430054e+006 1.002463425352e+006 1.002470250155e+006 1.002329895919e+006 1.002286030715e+006 1.002152294623e+006 1.002287224973e+006 1.002155442466e+006 1.002644903807e+006 1.002348980101e+006 1.002539228617e+006 1.002354715596e+006 1.002547714777e+006 1.002366855010e+006 1.002283127608e+006 1.002368050408e+006 1.002303784797e+006 1.002291928159e+006 1.002366363227e+006 1.002364654005e+006 1.002273118885e+006 1.002405584410e+006 1.002527299037e+006 1.002405008168e+006 1.002556504669e+006 1.002194626586e+006 1.002264808953e+006 1.002187681699e+006 1.002253632174e+006 1.002500555333e+006 1.002431101428e+006 1.002500865734e+006 1.002431057409e+006 1.002386678394e+006 1.002138221673e+006 1.002603520499e+006 1.002569255443e+006 1.002393947972e+006 1.002330662716e+006 1.002140354379e+006 1.002388203927e+006 1.002598210514e+006 1.002569768251e+006 1.002395352837e+006 1.002332443685e+006 1.002259121030e+006 1.002200323440e+006 1.002396732369e+006 1.002259219583e+006 1.002192568883e+006 1.002400174346e+006 1.002662669425e+006 1.002479375619e+006 1.002563572785e+006 1.002656817304e+006 1.002458577028e+006 1.002563932311e+006 1.002041727562e+006 1.002433178784e+006 1.002059707197e+006 1.002044133644e+006 1.002474882002e+006 1.002079692780e+006 1.002722169307e+006 1.002093006417e+006 1.002691457280e+006 1.002097725277e+006 1.002227751803e+006 1.002601224688e+006 1.002228575094e+006 1.002594758411e+006 1.002253595241e+006 1.002411262498e+006 1.002359210140e+006 1.002255672349e+006 1.002411017935e+006 1.002359457768e+006 1.002219652332e+006 1.002467199583e+006 1.002218907200e+006 1.002466781877e+006 1.002512775913e+006 1.002517034124e+006 1.002441985792e+006 1.002440637485e+006 1.002112451030e+006 1.002101197655e+006 1.002107685463e+006 1.002639872337e+006 1.002075562273e+006 1.002397853903e+006 1.002600581495e+006 1.002574111317e+006 1.002147078266e+006 1.002157910347e+006 1.002174388003e+006 1.002604784625e+006 1.002233315575e+006 1.002604887353e+006 1.002229610681e+006 1.002423589353e+006 1.002101839001e+006 1.002405763358e+006 1.002091898219e+006 1.002095966320e+006 1.002715121076e+006 1.002204694253e+006 1.001910979450e+006 1.002776796910e+006 1.002763211521e+006 1.002661710592e+006 1.002580588378e+006 1.002472674345e+006 1.002619986728e+006 1.002593387270e+006 1.002551323220e+006 1.002145337583e+006 1.002373035115e+006 1.002021687284e+006 1.002420638677e+006 1.002198759746e+006 1.002067805121e+006 1.002210114866e+006 1.002162813176e+006 1.002187549153e+006 1.002785389818e+006 1.002809309372e+006 1.002224177702e+006 1.002658053213e+006 1.002218011933e+006 1.002382516456e+006 1.002664125276e+006 1.000000000000e+006 1.000000000000e+006 9.988267214668e+005 1.002675058806e+006 1.002920376263e+006 1.002160668881e+006 1.002743967461e+006 1.002750302564e+006 1.001960456796e+006 1.002858329631e+006 1.002350296597e+006 1.002811579559e+006 1.002131473091e+006 1.002067681070e+006 1.002050099487e+006 1.001929137835e+006 1.002254918941e+006 1.002155571931e+006 1.002744997020e+006 1.002890600342e+006 1.002393181926e+006 1.002100077870e+006 1.002126062153e+006 1.002751534767e+006 1.002717976351e+006 1.002690397750e+006 1.001974852181e+006 1.001972153745e+006 1.002928853586e+006 1.002291820240e+006 1.002292102997e+006 1.002218562554e+006 1.002282381709e+006 1.002759325899e+006 1.002156428355e+006 1.002054364461e+006 1.001879617927e+006 1.002258874682e+006 1.002489144797e+006 1.002150163321e+006 1.002390975314e+006 1.002061784727e+006 1.000454614342e+006 1.000509198456e+006 1.002858371618e+006 1.002612065522e+006 1.000644208266e+006 1.002821676847e+006 1.002382734936e+006 1.002834460603e+006 1.002506218326e+006 1.002408948431e+006 9.976731091109e+005 1.002860227021e+006 1.002742833638e+006 1.001920483470e+006 1.002214892363e+006 1.002886758134e+006 1.002343941353e+006 1.002342806448e+006 1.002915621093e+006 1.002562234083e+006 1.002427591667e+006 1.002204898046e+006 1.002828322591e+006 1.002694964503e+006 1.001949295190e+006 1.002309992171e+006 1.002396123378e+006 1.002582743680e+006 1.002219788993e+006 1.002131393379e+006 1.002853996881e+006 1.002615339828e+006 1.002858423006e+006 1.002874246468e+006 1.002609715465e+006 1.001896639568e+006 1.002036118331e+006 1.001092131440e+006 1.002728131773e+006 9.964344743100e+005 1.002205498265e+006 1.001879807189e+006 1.002390791820e+006 1.002107225297e+006 1.002641091222e+006 1.002942437508e+006 1.002695095194e+006 1.002687401505e+006 1.002801129503e+006 1.002767722512e+006 1.002789328392e+006 1.002867193130e+006 1.002769154293e+006 1.000768635684e+006 1.001337446321e+006 1.000296631939e+006 1.001198085751e+006 1.002653959890e+006 1.001201891397e+006 1.007088411269e+006 1.002008832855e+006 1.002659517631e+006 1.002745943043e+006 1.002855593828e+006 1.001206786113e+006 1.002215111737e+006 1.002258912597e+006 1.002285122836e+006 1.002284799295e+006 1.002414935088e+006 1.002411065354e+006 1.002847201406e+006 1.002669707139e+006 1.002162444423e+006 1.002167328440e+006 1.002161227949e+006 1.002176666097e+006 1.002656625950e+006 1.002718578627e+006 
        </DataArray>
        <DataArray type="Float64" Name="MEAN_PRESSURE" format="ascii">