<?xml version="1.0"?>
<VTKFile type="UnstructuredGrid" version="0.1" byte_order="LittleEndian">
  <UnstructuredGrid>
    <Piece NumberOfPoints="963" NumberOfCells="1758">
      <Points>
        <DataArray type="Float64" NumberOfComponents="3" format="ascii">
          1.600262034769e+002 1.257989505921e+001 0.000000000000e+000
          1.635346199106e+002 2.000000000000e+001 0.000000000000e+000
          1.554515002484e+002 2.000000000000e+001 0.000000000000e+000
          3.459306441575e+000 1.667621982453e+001 0.000000000000e+000
          3.062266634850e+000 1.705413688405e+001 0.000000000000e+000
          2.873380769063e+000 1.650527725632e+001 0.000000000000e+000
          1.514088444034e+000 1.865189448105e+001 0.000000000000e+000
          1.967902677551e+000 1.834103489750e+001 0.000000000000e+000
          2.034564522234e+000 1.890806711991e+001 0.000000000000e+000
          2.478275273162e+000 1.702762299110e+001 0.000000000000e+000
          2.952621433467e+000 1.774357373580e+001 0.000000000000e+000
          2.237893542067e+000 1.782457469610e+001 0.000000000000e+000
          3.313583922780e+000 3.274674552047e+000 0.000000000000e+000
          2.561432712787e+000 3.156040447793e+000 0.000000000000e+000
          3.047531989640e+000 2.714594415171e+000 0.000000000000e+000
          2.750804692284e+000 3.936058190693e+000 0.000000000000e+000
          2.599039179818e+000 2.451529939148e+000 0.000000000000e+000
          3.139686649742e+000 2.186924052088e+000 0.000000000000e+000
          1.919984553221e+000 3.358010194268e+000 0.000000000000e+000
          1.960900304591e+000 2.773319745251e+000 0.000000000000e+000
          1.894565400391e+000 1.733316857565e+001 0.000000000000e+000
          0.000000000000e+000 1.538461538461e+001 0.000000000000e+000
          5.816229249735e-001 1.567919247147e+001 0.000000000000e+000
          0.000000000000e+000 1.589743589743e+001 0.000000000000e+000
          9.766405669483e+001 2.000000000000e+001 0.000000000000e+000
          1.010672711393e+002 1.500000000000e+001 0.000000000000e+000
          1.029329279907e+002 2.000000000000e+001 0.000000000000e+000
          9.588503785413e+001 1.500000000000e+001 0.000000000000e+000
          1.039231647117e+002 1.000000000000e+001 0.000000000000e+000
          9.860830811271e+001 1.000000000000e+001 0.000000000000e+000
          1.010672711397e+002 5.000000000000e+000 0.000000000000e+000
          9.766405669557e+001 0.000000000000e+000 0.000000000000e+000
          1.029329279915e+002 0.000000000000e+000 0.000000000000e+000
          9.588503785449e+001 5.000000000000e+000 0.000000000000e+000
          7.892434178002e+001 2.000000000000e+001 0.000000000000e+000
          8.173808356948e+001 1.500000000000e+001 0.000000000000e+000
          8.328058896910e+001 2.000000000000e+001 0.000000000000e+000
          7.679274808893e+001 1.514423393202e+001 0.000000000000e+000
          7.970503892166e+001 1.000000000000e+001 0.000000000000e+000
          8.409930620613e+001 1.000000000000e+001 0.000000000000e+000
          8.173808356980e+001 5.000000000000e+000 0.000000000000e+000
          7.892434178065e+001 0.000000000000e+000 0.000000000000e+000
          8.328058896976e+001 0.000000000000e+000 0.000000000000e+000
          7.679274808925e+001 4.855766067979e+000 0.000000000000e+000
          1.084583939765e+002 2.000000000000e+001 0.000000000000e+000
          1.122011528880e+002 1.500000000000e+001 0.000000000000e+000
          1.142529496098e+002 2.000000000000e+001 0.000000000000e+000
          1.065018792644e+002 1.500000000000e+001 0.000000000000e+000
          1.153419838410e+002 1.000000000000e+001 0.000000000000e+000
          1.094968549120e+002 1.000000000000e+001 0.000000000000e+000
          1.122011528884e+002 5.000000000000e+000 0.000000000000e+000
          1.084583939773e+002 0.000000000000e+000 0.000000000000e+000
          1.142529496106e+002 0.000000000000e+000 0.000000000000e+000
          1.065018792648e+002 5.000000000000e+000 0.000000000000e+000
          1.181779812237e+002 1.500000000000e+001 0.000000000000e+000
          1.203297004775e+002 2.000000000000e+001 0.000000000000e+000
          1.214717707847e+002 1.000000000000e+001 0.000000000000e+000
          1.181779812242e+002 5.000000000000e+000 0.000000000000e+000
          1.203297004784e+002 0.000000000000e+000 0.000000000000e+000
          7.477039199538e+001 2.000000000000e+001 0.000000000000e+000
          7.551483469771e+001 1.000000000000e+001 0.000000000000e+000
          7.296959467356e+001 1.385646386579e+001 0.000000000000e+000
          7.477039199599e+001 0.000000000000e+000 0.000000000000e+000
          7.296959467379e+001 6.143536134207e+000 0.000000000000e+000
          6.918477198508e+001 1.366665532880e+001 0.000000000000e+000
          6.746477463053e+001 1.000000000000e+001 0.000000000000e+000
          7.151921701478e+001 1.000000000000e+001 0.000000000000e+000
          6.918477198529e+001 6.333344671202e+000 0.000000000000e+000
          9.263986346551e+001 2.000000000000e+001 0.000000000000e+000
          9.094345943471e+001 1.500000000000e+001 0.000000000000e+000
          9.354026529380e+001 1.000000000000e+001 0.000000000000e+000
          9.263986346623e+001 0.000000000000e+000 0.000000000000e+000
          9.094345943506e+001 5.000000000000e+000 0.000000000000e+000
          1.244344522558e+002 1.503312574389e+001 0.000000000000e+000
          1.267023895482e+002 2.000000000000e+001 0.000000000000e+000
          1.285510028831e+002 1.020485663255e+001 0.000000000000e+000
          1.244344522563e+002 5.033125743893e+000 0.000000000000e+000
          1.267023895491e+002 0.000000000000e+000 0.000000000000e+000
          8.623136018348e+001 1.500000000000e+001 0.000000000000e+000
          8.784898578901e+001 2.000000000000e+001 0.000000000000e+000
          8.870757443665e+001 1.000000000000e+001 0.000000000000e+000
          8.623136018382e+001 5.000000000000e+000 0.000000000000e+000
          8.784898578969e+001 0.000000000000e+000 0.000000000000e+000
          4.872472752737e+000 0.000000000000e+000 0.000000000000e+000
          4.204479229380e+000 6.412840757122e-001 0.000000000000e+000
          4.157376851380e+000 0.000000000000e+000 0.000000000000e+000
          5.192892237051e+000 7.280355562789e-001 0.000000000000e+000
          1.306630304579e+000 6.212843344151e-001 0.000000000000e+000
          1.050228457081e+000 0.000000000000e+000 0.000000000000e+000
          1.614006202528e+000 0.000000000000e+000 0.000000000000e+000
          1.266763055794e+001 1.554696422866e+001 0.000000000000e+000
          1.263589100638e+001 1.657720348306e+001 0.000000000000e+000
          1.174268578662e+001 1.633018318031e+001 0.000000000000e+000
          6.588835695415e+000 7.505681085529e+000 0.000000000000e+000
          6.456871838389e+000 6.658671683861e+000 0.000000000000e+000
          7.208099140752e+000 7.038822846307e+000 0.000000000000e+000
          4.412623338166e+000 9.138856431549e+000 0.000000000000e+000
          4.024185797397e+000 8.708923235630e+000 0.000000000000e+000
          4.601447447338e+000 8.507292699647e+000 0.000000000000e+000
          5.325995059827e-001 6.308307298123e+000 0.000000000000e+000
          0.000000000000e+000 6.666666666655e+000 0.000000000000e+000
          0.000000000000e+000 6.153846153835e+000 0.000000000000e+000
          3.986461521768e+000 8.146114708182e+000 0.000000000000e+000
          2.411603373059e+000 6.510912162016e+000 0.000000000000e+000
          1.807525763324e+000 6.938080373464e+000 0.000000000000e+000
          1.686779352680e+000 6.178928843543e+000 0.000000000000e+000
          2.510760620997e+000 7.229076682239e+000 0.000000000000e+000
          3.166991983438e+000 6.906135870389e+000 0.000000000000e+000
          3.452788915829e+000 6.276851216781e+000 0.000000000000e+000
          3.340122000742e+000 5.656365440432e+000 0.000000000000e+000
          4.047936562877e+000 5.873561587395e+000 0.000000000000e+000
          1.802463974828e+000 1.292744708026e+001 0.000000000000e+000
          1.383967161336e+000 1.330299552906e+001 0.000000000000e+000
          1.329690820161e+000 1.266495373033e+001 0.000000000000e+000
          2.267922292389e+000 1.431116835808e+001 0.000000000000e+000
          2.854613987538e+000 1.466581611369e+001 0.000000000000e+000
          2.339869278674e+000 1.493776402241e+001 0.000000000000e+000
          4.690956878046e+000 3.115726773737e+000 0.000000000000e+000
          4.014773718330e+000 2.850429494150e+000 0.000000000000e+000
          4.643493383296e+000 2.293565471327e+000 0.000000000000e+000
          5.186083944243e+000 1.661927139510e+000 0.000000000000e+000
          5.452965511439e+000 2.679881546544e+000 0.000000000000e+000
          5.360460104304e+000 3.539902157655e+000 0.000000000000e+000
          6.197986304192e+000 3.115706366113e+000 0.000000000000e+000
          7.929356606585e-001 1.634705420870e+001 0.000000000000e+000
          1.222819867503e+000 1.599517159419e+001 0.000000000000e+000
          1.215723647926e+000 1.546209040954e+001 0.000000000000e+000
          1.770601276021e+000 1.521217632514e+001 0.000000000000e+000
          1.242830150061e+000 1.493919370237e+001 0.000000000000e+000
          1.166444124506e+000 4.610115997312e+000 0.000000000000e+000
          1.851620547934e+000 4.486892013458e+000 0.000000000000e+000
          1.494152702314e+000 5.145235789232e+000 0.000000000000e+000
          1.353088107040e+000 4.090803091641e+000 0.000000000000e+000
          3.802567455935e+000 5.084697985980e+000 0.000000000000e+000
          1.014840185783e+000 5.494768572296e+000 0.000000000000e+000
          8.831064584820e-001 5.109311190608e+000 0.000000000000e+000
          1.727903958959e+000 1.618384478933e+001 0.000000000000e+000
          1.343261525342e+000 1.651800241408e+001 0.000000000000e+000
          3.308120627291e+000 8.593311644828e+000 0.000000000000e+000
[...]
      <PointData Scalars="LIQUID_PRESSURE">
        <DataArray type="Float64" Name="LIQUID_PRESSURE" format="ascii">
          1.029222051873e+006 1.026657049779e+006 1.032566518997e+006 1.126814570004e+006 1.126856660289e+006 1.126966758698e+006 1.127082288724e+006 1.127551897285e+006 1.127588148537e+006 1.127435549289e+006 1.126890165051e+006 1.127562243836e+006 1.126727391281e+006 1.127324937656e+006 1.126833602875e+006 1.127071909318e+006 1.127291096036e+006 1.126759090991e+006 1.127537806708e+006 1.127593532202e+006 1.127473981743e+006 1.127197445604e+006 1.126814883845e+006 1.127186415279e+006 1.084443387038e+006 1.081571616731e+006 1.080073514062e+006 1.085500838191e+006 1.079307007209e+006 1.083729830319e+006 1.081566016403e+006 1.084438506471e+006 1.080063850863e+006 1.085498549649e+006 1.099034484400e+006 1.096875100054e+006 1.095683255238e+006 1.100414041336e+006 1.098498651913e+006 1.094918157862e+006 1.096875486329e+006 1.099035571980e+006 1.095683495377e+006 1.100415230557e+006 1.074776407451e+006 1.071773123075e+006 1.069823738057e+006 1.076525797756e+006 1.068299877588e+006 1.074125433944e+006 1.071748698031e+006 1.074776819050e+006 1.069752296338e+006 1.076520815594e+006 1.066196630211e+006 1.062964959455e+006 1.062200058354e+006 1.066168437918e+006 1.062881482306e+006 1.101829194462e+006 1.101105681464e+006 1.102843955582e+006 1.101828733023e+006 1.102841351664e+006 1.104987658586e+006 1.106690781234e+006 1.104085557821e+006 1.104978176130e+006 1.089012367954e+006 1.089901619039e+006 1.088144922308e+006 1.089010806423e+006 1.089900845261e+006 1.059980969205e+006 1.059285124636e+006 1.056575136441e+006 1.060487273915e+006 1.058221768160e+006 1.093891830364e+006 1.091920294368e+006 1.091792303028e+006 1.093891693541e+006 1.091919799054e+006 1.127009109132e+006 1.127391522543e+006 1.127315194123e+006 1.126708536072e+006 1.126856680957e+006 1.126678489929e+006 1.127254417668e+006 1.126363366524e+006 1.126242054875e+006 1.126359024222e+006 1.127232659952e+006 1.127255945708e+006 1.126707441312e+006 1.127308851218e+006 1.127242901662e+006 1.127169680925e+006 1.126784507171e+006 1.127099567234e+006 1.127074949782e+006 1.127219588558e+006 1.127414883587e+006 1.127402492085e+006 1.127321708199e+006 1.127284523440e+006 1.126752024788e+006 1.126833296022e+006 1.126742888064e+006 1.127293069302e+006 1.127376168851e+006 1.126912685235e+006 1.126859403637e+006 1.127525294765e+006 1.126945104874e+006 1.127468897031e+006 1.127069513722e+006 1.127214312321e+006 1.127129953083e+006 1.126690903161e+006 1.126602552585e+006 1.126582338088e+006 1.127091001845e+006 1.126694252695e+006 1.126706427216e+006 1.126716984919e+006 1.127349025431e+006 1.126745146645e+006 1.126699612514e+006 1.127447968551e+006 1.127053822596e+006 1.126849601434e+006 1.127051513943e+006 1.126650418018e+006 1.126634261312e+006 1.127263847103e+006 1.126806777200e+006 1.126764970098e+006 1.127154125197e+006 1.126756896659e+006 1.126687321910e+006 1.126695499773e+006 1.126799390643e+006 1.126712412138e+006 1.126647981292e+006 1.126930612021e+006 1.126851514116e+006 1.126697723590e+006 1.126943267427e+006 1.127288184193e+006 1.127035577955e+006 1.127191183431e+006 1.126773098491e+006 1.127260411299e+006 1.127596601558e+006 1.127240076750e+006 1.127003977930e+006 1.126753422136e+006 1.126693450459e+006 1.126962907232e+006 1.127016979479e+006 1.126895246899e+006 1.126648205486e+006 1.126623609414e+006 1.127295178267e+006 1.127172405265e+006 1.127026250809e+006 1.127170229170e+006 1.127495583771e+006 1.127095671808e+006 1.127393207092e+006 1.127017355948e+006 1.126674428184e+006 1.127172872766e+006 1.126807954722e+006 1.127083831889e+006 1.126985339700e+006 1.127128521299e+006 1.126628250267e+006 1.127446366574e+006 1.127393898608e+006 1.126875257664e+006 1.127439211063e+006 1.126671111197e+006 1.126744719675e+006 1.126769019917e+006 1.126836195249e+006 1.127341006342e+006 1.127535659197e+006 1.126974987738e+006 1.127053462903e+006 1.127530367696e+006 1.127524952326e+006 1.126609708336e+006 1.127484627610e+006 1.127016293571e+006 1.127337304093e+006 1.126854424397e+006 1.126847024926e+006 1.127316068257e+006 1.127575433807e+006 1.127311088473e+006 1.126752607273e+006 1.126622625738e+006 1.126771894469e+006 1.127190876656e+006 1.126760886216e+006 1.126775833022e+006 1.126900702339e+006 1.126636781852e+006 1.127161926681e+006 1.127561078255e+006 1.108170978055e+006 1.108177937258e+006 1.127220953378e+006 1.127524843747e+006 1.126570050032e+006 1.126837955731e+006 1.126547236121e+006 1.127029989003e+006 1.127038309062e+006 1.127366660063e+006 1.126675047437e+006 1.127086674931e+006 1.126649604267e+006 1.127417351065e+006 1.127353703069e+006 1.126685332649e+006 1.127545868511e+006 1.126701687525e+006 1.126753998790e+006 1.127097627867e+006 1.126859637690e+006 1.126750789294e+006 1.126983942170e+006 1.127417802031e+006 1.127424973955e+006 1.126709986767e+006 1.127611342741e+006 1.127207315281e+006 1.126775176155e+006 1.126806144932e+006 1.127126917234e+006 1.127137228088e+006 1.127125669325e+006 1.127121767249e+006 1.126857262406e+006 1.127024652327e+006 1.126882597477e+006 1.126642557268e+006 1.126743786611e+006 1.127057944327e+006 1.127081773214e+006 1.127184845253e+006 1.127195623165e+006 1.126955399311e+006 1.127173885228e+006 1.126903898727e+006 1.127143761170e+006 1.127030087489e+006 1.127201656523e+006 1.127194451318e+006 1.110571276815e+006 1.109179330146e+006 1.109156631767e+006 1.111581564864e+006 1.108939058683e+006 1.110420686571e+006 1.109065792450e+006 1.110617932412e+006 1.109156798087e+006 1.111606564950e+006 1.108966764102e+006 1.110439218390e+006 1.114009040820e+006 1.112786909252e+006 1.112369394020e+006 1.115055914747e+006 1.112511939879e+006 1.113699910167e+006 1.112783845955e+006 1.114014805098e+006 1.112355831658e+006 1.115059100762e+006 1.112508402615e+006 1.113702978230e+006 1.121290870885e+006 1.120928362228e+006 1.120498354492e+006 1.121644683403e+006 1.120452625882e+006 1.121242728499e+006 1.120928488434e+006 1.121291043475e+006 1.120498417469e+006 1.121644846646e+006 1.120452690591e+006 1.121242851501e+006 1.119601482069e+006 1.119452063948e+006 1.118764226198e+006 1.120139455523e+006 1.118571704401e+006 1.119616410204e+006 1.119451916612e+006 1.119601556435e+006 1.118763933663e+006 1.120139443804e+006 1.118571516323e+006 1.119616366935e+006 1.123207734082e+006 1.122835117762e+006 1.122385067035e+006 1.123264690194e+006 1.122834728854e+006 1.123207552951e+006 1.122384925798e+006 1.123263825391e+006 1.118057358332e+006 1.116911357436e+006 1.116947185532e+006 1.117992858017e+006 1.116844067201e+006 1.117951183045e+006 1.116911051710e+006 1.118057006129e+006 1.116946504358e+006 1.117992544174e+006 1.116843685194e+006 1.117950899087e+006 1.115162539695e+006 1.115511339796e+006 1.115276702088e+006 1.115162146841e+006 1.115510134001e+006 1.115276139411e+006 1.122026444494e+006 1.122457560812e+006 1.121884099495e+006 1.122026595368e+006 1.122457582856e+006 1.121884103353e+006 1.122276105006e+006 1.122275550794e+006 1.114926265512e+006 1.115712910874e+006 1.114036066172e+006 1.115999625518e+006 1.114926536292e+006 1.115999115256e+006 1.120314529826e+006 1.120637724144e+006 1.119878536478e+006 1.121039466688e+006 1.120314536287e+006 1.121039517758e+006 1.113273412135e+006 1.113028684232e+006 1.113275414339e+006 1.123019661910e+006 1.123272409686e+006 1.123274404779e+006 1.123021309619e+006 1.116999461240e+006 1.117132404255e+006 1.117132409485e+006 1.119390957257e+006 1.118933627270e+006 1.119390926537e+006 1.118504073859e+006 1.118089456233e+006 1.118503901683e+006 1.122319834283e+006 1.122319907483e+006 1.121395855540e+006 1.121825768244e+006 1.121825830105e+006 1.111909357339e+006 1.110668464273e+006 1.111907410174e+006 1.122160228280e+006 1.109385556818e+006 1.108582447216e+006 1.109390406556e+006 1.106831755967e+006 1.106538699991e+006 1.106762925271e+006 1.106497222835e+006 1.126560062623e+006 1.126623351075e+006 1.126766002959e+006 1.126834776982e+006 1.126973889636e+006 1.127185917266e+006 1.127545963352e+006 1.127012098159e+006 1.127549131074e+006 1.127049234909e+006 1.126818188055e+006 1.127262334623e+006 1.126856084313e+006 1.126774550095e+006 1.034800744839e+006 1.038223835916e+006 1.032572259869e+006 1.127178236188e+006 1.126687865517e+006 1.126989819909e+006 1.127171886397e+006 1.127132845275e+006 1.127321506821e+006 1.126643979993e+006 1.127200308975e+006 1.127199618573e+006 1.127525986431e+006 1.127329587659e+006 1.126614823763e+006 1.126664702165e+006 1.126784889337e+006 1.127507683294e+006 1.126868155505e+006 1.127125660162e+006 1.126841059204e+006 1.127120548477e+006 1.126657420047e+006 1.126578903457e+006 1.126603751241e+006 1.126963560324e+006 1.126659356294e+006 1.127162867796e+006 1.126881794908e+006 1.126743468818e+006 1.127007060186e+006 1.126887721501e+006 1.126716998238e+006 1.127275772797e+006 1.127099538890e+006 1.126811125522e+006 1.126900803408e+006 1.126969041493e+006 1.126550374773e+006 1.126313926597e+006 1.126894395875e+006 1.126991989059e+006 1.126461384003e+006 1.126355236621e+006 1.126663399399e+006 1.126931161172e+006 1.127154062355e+006 1.126451181841e+006 1.126662657614e+006 1.126238589218e+006 1.127347681081e+006 1.126651700307e+006 1.126988630464e+006 1.126115594132e+006 1.126231129246e+006 1.127269824169e+006 1.126744386277e+006 1.126593048016e+006 1.127135609636e+006 1.126490758927e+006 1.126494208320e+006 1.126878168097e+006 1.126912531211e+006 1.126708869341e+006 1.126444886720e+006 1.126432629138e+006 1.126441962769e+006 1.126136381928e+006 1.126422802254e+006 1.126755882072e+006 1.126502116608e+006 1.126232506563e+006 1.126330126992e+006 1.126490627197e+006 1.127409187813e+006 1.127265435092e+006 1.126422439455e+006 1.126485692639e+006 1.126636611488e+006 1.126756459835e+006 1.127006400407e+006 1.127256191965e+006 1.126630295758e+006 1.126630729971e+006 1.127179631609e+006 1.127551083597e+006 1.126988355954e+006 1.126645299067e+006 1.126937015422e+006 1.126916498332e+006 1.126624087630e+006 1.126589113799e+006 1.126951311332e+006 1.126538658291e+006 1.126800406972e+006 1.126996184745e+006 1.126985716785e+006 1.126605120199e+006 1.126603467594e+006 1.126993127256e+006 1.127153632536e+006 1.126870671222e+006 1.126596506386e+006 1.126462860944e+006 1.126585219766e+006 1.126661300516e+006 1.127411814317e+006 1.126977948237e+006 1.126577844208e+006 1.126853586049e+006 1.127197828711e+006 1.126714242821e+006 1.126641122253e+006 1.126621717189e+006 1.126823073798e+006 1.127265853625e+006 1.126824035860e+006 1.127291445092e+006 1.127112818010e+006 1.127075722572e+006 1.126529264566e+006 1.127010839173e+006 1.127520246481e+006 1.126759086246e+006 1.126798785430e+006 1.127299838246e+006 1.126734101552e+006 1.126642291600e+006 1.126671096406e+006 1.127156759894e+006 1.126847641640e+006 1.127316421852e+006 1.127437555415e+006 1.126474828440e+006 1.126562294234e+006 1.126793343450e+006 1.126497525677e+006 1.126866123739e+006 1.126662275781e+006 1.126147505169e+006 1.126249397668e+006 1.126761237591e+006 1.127392822157e+006 1.127580715895e+006 1.126435922766e+006 1.126343500294e+006 1.126395376061e+006 1.126710750946e+006 1.126599160247e+006 1.126618569494e+006 1.127557519092e+006 1.127456276853e+006 1.127048564745e+006 1.126633158007e+006 1.126736327260e+006 1.127136091379e+006 1.127057905252e+006 1.127019000301e+006 1.126443394766e+006 1.126519265936e+006 1.126333919261e+006 1.127569417027e+006 1.126637017067e+006 1.127040163132e+006 1.127206522950e+006 1.126996872038e+006 1.126367695045e+006 1.126832850207e+006 1.126641247728e+006 1.126657823732e+006 1.126743292670e+006 1.126967737588e+006 1.126589023783e+006 1.126832940856e+006 1.127066958977e+006 1.126676555111e+006 1.127257069355e+006 1.126439818919e+006 1.126513118870e+006 1.127412187270e+006 1.126944949672e+006 1.127496895868e+006 1.126601810075e+006 1.126707034803e+006 1.126978342345e+006 1.126728180730e+006 1.126922120556e+006 1.126378735167e+006 1.126793036885e+006 1.126754423276e+006 1.126796032347e+006 1.126946659627e+006 1.126328513874e+006 1.126341900916e+006 1.126692521807e+006 1.020460140715e+006 1.017903974084e+006 1.013961411637e+006 1.126693023191e+006 1.126837261000e+006 1.127416148253e+006 1.127243218285e+006 1.126851639302e+006 1.127225459413e+006 1.126707700827e+006 1.126807959405e+006 1.127136208959e+006 1.126779464123e+006 1.105146856699e+006 1.105165633545e+006 1.126837153606e+006 1.127122991987e+006 1.127202807612e+006 1.126809901278e+006 1.126767392642e+006 1.126660166888e+006 1.126865036601e+006 1.126707512416e+006 1.127022493120e+006 1.127083660117e+006 1.126615352119e+006 1.126534701918e+006 1.126637667016e+006 1.029041595285e+006 1.026658708155e+006 1.127236164681e+006 1.126635947604e+006 1.126689358271e+006 1.127017123740e+006 1.126583541659e+006 1.126766984302e+006 1.123660261374e+006 1.123591088074e+006 1.123654912022e+006 1.123588709528e+006 1.126808724253e+006 1.126716284286e+006 1.126508846618e+006 1.126644550954e+006 1.123174290325e+006 1.123220909222e+006 1.123011655054e+006 1.123218353960e+006 1.126693488544e+006 1.126332243835e+006 1.127017075687e+006 1.126605576130e+006 1.127033813207e+006 1.126772198788e+006 1.127347002403e+006 1.127332536133e+006 1.126669073963e+006 1.126586031307e+006 1.127544292338e+006 1.126732744594e+006 1.126233751178e+006 1.126635284621e+006 1.024235624868e+006 1.020460619410e+006 1.126992338669e+006 1.127573536667e+006 1.127245302733e+006 1.127318147051e+006 1.126954076430e+006 1.126946427843e+006 1.126549108657e+006 1.104035770659e+006 1.104020806385e+006 1.126458263623e+006 1.127059727236e+006 1.125891032490e+006 1.126250942986e+006 1.126123093565e+006 1.126706767625e+006 1.127346217859e+006 1.127188425669e+006 1.126086520821e+006 1.008460102701e+006 1.007146490166e+006 1.126450931444e+006 1.127127086688e+006 1.127114068501e+006 1.126299983064e+006 1.127099991818e+006 1.127012839039e+006 1.127175229238e+006 1.126468101003e+006 1.123870935290e+006 1.123722800762e+006 1.123582041437e+006 1.124418338202e+006 1.124213237063e+006 1.123704386207e+006 1.124442160027e+006 1.124172337399e+006 1.124423345961e+006 1.124587216157e+006 1.124359852840e+006 1.124596026561e+006 1.124508553093e+006 1.124750148515e+006 1.124780293060e+006 1.124855894850e+006 1.124798790693e+006 1.124881231700e+006 1.124966907432e+006 1.125217447581e+006 1.125189846022e+006 1.125215042488e+006 1.125192163442e+006 1.125293746400e+006 1.125396782206e+006 1.125231011962e+006 1.125396501533e+006 1.125228123333e+006 1.125787913493e+006 1.125711831126e+006 1.125701903684e+006 1.125711191659e+006 1.125698152273e+006 1.123869905545e+006 1.123844864955e+006 1.124160078447e+006 1.124266459166e+006 1.123841854677e+006 1.123868831277e+006 1.124146586887e+006 1.124246910263e+006 1.124654137116e+006 1.124860040450e+006 1.124668945209e+006 1.124871850914e+006 1.124842096644e+006 1.124969523911e+006 1.124842476359e+006 1.124975642759e+006 1.125256165807e+006 1.125345659841e+006 1.125257809523e+006 1.125339123225e+006 1.124897661246e+006 1.124960228558e+006 1.124836906219e+006 1.125317113929e+006 1.124677552743e+006 1.125111546326e+006 1.124957429322e+006 1.124894835296e+006 1.124832325347e+006 1.125313400959e+006 1.124677444148e+006 1.125111028980e+006 1.125216155872e+006 1.125368325864e+006 1.125329320021e+006 1.125208760904e+006 1.125357400261e+006 1.125324614775e+006 1.125772004314e+006 1.125722683182e+006 1.125673743974e+006 1.125762464394e+006 1.125723510889e+006 1.125670534455e+006 1.125569186468e+006 1.125860604361e+006 1.125529155373e+006 1.125584497348e+006 1.125924223670e+006 1.125573957661e+006 1.126088673375e+006 1.125843132301e+006 1.126097173880e+006 1.125885913773e+006 1.125369811735e+006 1.125724440944e+006 1.125375534364e+006 1.125709015539e+006 1.123983926378e+006 1.123702436725e+006 1.123865890861e+006 1.123982750019e+006 1.123703059489e+006 1.123866283130e+006 1.124315760478e+006 1.124349929637e+006 1.124310648245e+006 1.124351356640e+006 1.124945742364e+006 1.124948506294e+006 1.125209569940e+006 1.125204624478e+006 1.125171232008e+006 1.125151435263e+006 1.126396868187e+006 1.126792486737e+006 1.126408266217e+006 1.126839170209e+006 1.125724943052e+006 1.125707764807e+006 1.125993817744e+006 1.126010019103e+006 1.125722561169e+006 1.126058990421e+006 1.125722845242e+006 1.126028093212e+006 1.125693807248e+006 1.125736005921e+006 1.125600936126e+006 1.125726383907e+006 1.125581329702e+006 1.125669987813e+006 1.126760263172e+006 1.125753552218e+006 1.126367970398e+006 1.126819336284e+006 1.126461480520e+006 1.126494272952e+006 1.126044392604e+006 1.126117984748e+006 1.126080321681e+006 1.126056981210e+006 1.126065538012e+006 1.125932375951e+006 1.126082686873e+006 1.125821142350e+006 1.126045125586e+006 1.126028992194e+006 1.125949229433e+006 1.126054196982e+006 1.126010979217e+006 1.125945285068e+006 1.126503235053e+006 1.127082474728e+006 1.126479798278e+006 1.126454091135e+006 1.126855180209e+006 1.126800335386e+006 1.126434134178e+006 1.000000000000e+006 1.000000000000e+006 1.007146460083e+006 1.126899750237e+006 1.127233455412e+006 1.126859570019e+006 1.127133768809e+006 1.127044297150e+006 1.126864121615e+006 1.127113044275e+006 1.126913293291e+006 1.127097983038e+006 1.126656265960e+006 1.126198852922e+006 1.126176072276e+006 1.126868543451e+006 1.126827382472e+006 1.126269450454e+006 1.126463883637e+006 1.127147022651e+006 1.126371434991e+006 1.126184175307e+006 1.126428768850e+006 1.126692855369e+006 1.126120715507e+006 1.126972211158e+006 1.102936835980e+006 1.102942732381e+006 1.127381899983e+006 1.122722391557e+006 1.122723061351e+006 1.126108071937e+006 1.126800022224e+006 1.127074434082e+006 1.125994816294e+006 1.126768428055e+006 1.126598030051e+006 1.127087533571e+006 1.126086669740e+006 1.125941857941e+006 1.126088008479e+006 1.126611143264e+006 1.042193841282e+006 1.039752805789e+006 1.126988992310e+006 1.126563500892e+006 1.043675795956e+006 1.127100921763e+006 1.126786810943e+006 1.127104994617e+006 1.126250081080e+006 1.126778237709e+006 1.013961508505e+006 1.127361782556e+006 1.127297769095e+006 1.126689140492e+006 1.126213587648e+006 1.127286363660e+006 1.123643833257e+006 1.123642401442e+006 1.127361297307e+006 1.126898796023e+006 1.126635040149e+006 1.127043692436e+006 1.127232404983e+006 1.126998836125e+006 1.126832262072e+006 1.127013708995e+006 1.126994474141e+006 1.126808651292e+006 1.126647380477e+006 1.126729117266e+006 1.127115593382e+006 1.127021200898e+006 1.127137183046e+006 1.126830014414e+006 1.126573802955e+006 1.126801745029e+006 1.126146910940e+006 1.047122167205e+006 1.126420660518e+006 1.023555437860e+006 1.126051693819e+006 1.126603779882e+006 1.126324850367e+006 1.126861546210e+006 1.126396161244e+006 1.127166274719e+006 1.126035137871e+006 1.127103846065e+006 1.127193808672e+006 1.127116315522e+006 1.127158086683e+006 1.127148886827e+006 1.127091669180e+006 1.043739983895e+006 1.050312030256e+006 1.038219717655e+006 1.055229271000e+006 1.127008257492e+006 1.049960847209e+006 1.034911245837e+006 1.126667845164e+006 1.126983574049e+006 1.127094633242e+006 1.127106446542e+006 1.049574095903e+006 1.126864156743e+006 1.126851441897e+006 1.122905918436e+006 1.122906393398e+006 1.124150425970e+006 1.124149086238e+006 1.127137347472e+006 1.126984816600e+006 1.124300690482e+006 1.124297091799e+006 1.124138022262e+006 1.124155892077e+006 1.126971413058e+006 1.127065132206e+006 
        </DataArray>
        <DataArray type="Float64" Name="MEAN_PRESSURE" format="ascii">