<?xml version="1.0"?>
<VTKFile type="UnstructuredGrid" version="0.1" byte_order="LittleEndian">
  <UnstructuredGrid>
    <Piece NumberOfPoints="963" NumberOfCells="1758">
      <Points>
        <DataArray type="Float64" NumberOfComponents="3" format="ascii">
          1.600262034769e+002 1.257989505921e+001 0.000000000000e+000
          1.635346199106e+002 2.000000000000e+001 0.000000000000e+000
          1.554515002484e+002 2.000000000000e+001 0.000000000000e+000
          3.459306441575e+000 1.667621982453e+001 0.000000000000e+000
          3.062266634850e+000 1.705413688405e+001 0.000000000000e+000
          2.873380769063e+000 1.650527725632e+001 0.000000000000e+000
          1.514088444034e+000 1.865189448105e+001 0.000000000000e+000
          1.967902677551e+000 1.834103489750e+001 0.000000000000e+000
          2.034564522234e+000 1.890806711991e+001 0.000000000000e+000
          2.478275273162e+000 1.702762299110e+001 0.000000000000e+000
          2.952621433467e+000 1.774357373580e+001 0.000000000000e+000
          2.237893542067e+000 1.782457469610e+001 0.000000000000e+000
          3.313583922780e+000 3.274674552047e+000 0.000000000000e+000
          2.561432712787e+000 3.156040447793e+000 0.000000000000e+000
          3.047531989640e+000 2.714594415171e+000 0.000000000000e+000
          2.750804692284e+000 3.936058190693e+000 0.000000000000e+000
          2.599039179818e+000 2.451529939148e+000 0.000000000000e+000
          3.139686649742e+000 2.186924052088e+000 0.000000000000e+000
          1.919984553221e+000 3.358010194268e+000 0.000000000000e+000
          1.960900304591e+000 2.773319745251e+000 0.000000000000e+000
          1.894565400391e+000 1.733316857565e+001 0.000000000000e+000
          0.000000000000e+000 1.538461538461e+001 0.000000000000e+000
          5.816229249735e-001 1.567919247147e+001 0.000000000000e+000
          0.000000000000e+000 1.589743589743e+001 0.000000000000e+000
          9.766405669483e+001 2.000000000000e+001 0.000000000000e+000
          1.010672711393e+002 1.500000000000e+001 0.000000000000e+000
          1.029329279907e+002 2.000000000000e+001 0.000000000000e+000
          9.588503785413e+001 1.500000000000e+001 0.000000000000e+000
          1.039231647117e+002 1.000000000000e+001 0.000000000000e+000
          9.860830811271e+001 1.000000000000e+001 0.000000000000e+000
          1.010672711397e+002 5.000000000000e+000 0.000000000000e+000
          9.766405669557e+001 0.000000000000e+000 0.000000000000e+000
          1.029329279915e+002 0.000000000000e+000 0.000000000000e+000
          9.588503785449e+001 5.000000000000e+000 0.000000000000e+000
          7.892434178002e+001 2.000000000000e+001 0.000000000000e+000
          8.173808356948e+001 1.500000000000e+001 0.000000000000e+000
          8.328058896910e+001 2.000000000000e+001 0.000000000000e+000
          7.679274808893e+001 1.514423393202e+001 0.000000000000e+000
          7.970503892166e+001 1.000000000000e+001 0.000000000000e+000
          8.409930620613e+001 1.000000000000e+001 0.000000000000e+000
          8.173808356980e+001 5.000000000000e+000 0.000000000000e+000
          7.892434178065e+001 0.000000000000e+000 0.000000000000e+000
          8.328058896976e+001 0.000000000000e+000 0.000000000000e+000
          7.679274808925e+001 4.855766067979e+000 0.000000000000e+000
          1.084583939765e+002 2.000000000000e+001 0.000000000000e+000
          1.122011528880e+002 1.500000000000e+001 0.000000000000e+000
          1.142529496098e+002 2.000000000000e+001 0.000000000000e+000
          1.065018792644e+002 1.500000000000e+001 0.000000000000e+000
          1.153419838410e+002 1.000000000000e+001 0.000000000000e+000
          1.094968549120e+002 1.000000000000e+001 0.000000000000e+000
          1.122011528884e+002 5.000000000000e+000 0.000000000000e+000
          1.084583939773e+002 0.000000000000e+000 0.000000000000e+000
          1.142529496106e+002 0.000000000000e+000 0.000000000000e+000
          1.065018792648e+002 5.000000000000e+000 0.000000000000e+000
          1.181779812237e+002 1.500000000000e+001 0.000000000000e+000
          1.203297004775e+002 2.000000000000e+001 0.000000000000e+000
          1.214717707847e+002 1.000000000000e+001 0.000000000000e+000
          1.181779812242e+002 5.000000000000e+000 0.000000000000e+000
          1.203297004784e+002 0.000000000000e+000 0.000000000000e+000
          7.477039199538e+001 2.000000000000e+001 0.000000000000e+000
          7.551483469771e+001 1.000000000000e+001 0.000000000000e+000
          7.296959467356e+001 1.385646386579e+001 0.000000000000e+000
          7.477039199599e+001 0.000000000000e+000 0.000000000000e+000
          7.296959467379e+001 6.143536134207e+000 0.000000000000e+000
          6.918477198508e+001 1.366665532880e+001 0.000000000000e+000
          6.746477463053e+001 1.000000000000e+001 0.000000000000e+000
          7.151921701478e+001 1.000000000000e+001 0.000000000000e+000
          6.918477198529e+001 6.333344671202e+000 0.000000000000e+000
          9.263986346551e+001 2.000000000000e+001 0.000000000000e+000
          9.094345943471e+001 1.500000000000e+001 0.000000000000e+000
          9.354026529380e+001 1.000000000000e+001 0.000000000000e+000
          9.263986346623e+001 0.000000000000e+000 0.000000000000e+000
          9.094345943506e+001 5.000000000000e+000 0.000000000000e+000
          1.244344522558e+002 1.503312574389e+001 0.000000000000e+000
          1.267023895482e+002 2.000000000000e+001 0.000000000000e+000
          1.285510028831e+002 1.020485663255e+001 0.000000000000e+000
          1.244344522563e+002 5.033125743893e+000 0.000000000000e+000
          1.267023895491e+002 0.000000000000e+000 0.000000000000e+000
          8.623136018348e+001 1.500000000000e+001 0.000000000000e+000
          8.784898578901e+001 2.000000000000e+001 0.000000000000e+000
          8.870757443665e+001 1.000000000000e+001 0.000000000000e+000
          8.623136018382e+001 5.000000000000e+000 0.000000000000e+000
          8.784898578969e+001 0.000000000000e+000 0.000000000000e+000
          4.872472752737e+000 0.000000000000e+000 0.000000000000e+000
          4.204479229380e+000 6.412840757122e-001 0.000000000000e+000
          4.157376851380e+000 0.000000000000e+000 0.000000000000e+000
          5.192892237051e+000 7.280355562789e-001 0.000000000000e+000
          1.306630304579e+000 6.212843344151e-001 0.000000000000e+000
          1.050228457081e+000 0.000000000000e+000 0.000000000000e+000
          1.614006202528e+000 0.000000000000e+000 0.000000000000e+000
          1.266763055794e+001 1.554696422866e+001 0.000000000000e+000
          1.263589100638e+001 1.657720348306e+001 0.000000000000e+000
          1.174268578662e+001 1.633018318031e+001 0.000000000000e+000
          6.588835695415e+000 7.505681085529e+000 0.000000000000e+000
          6.456871838389e+000 6.658671683861e+000 0.000000000000e+000
          7.208099140752e+000 7.038822846307e+000 0.000000000000e+000
          4.412623338166e+000 9.138856431549e+000 0.000000000000e+000
          4.024185797397e+000 8.708923235630e+000 0.000000000000e+000
          4.601447447338e+000 8.507292699647e+000 0.000000000000e+000
          5.325995059827e-001 6.308307298123e+000 0.000000000000e+000
          0.000000000000e+000 6.666666666655e+000 0.000000000000e+000
          0.000000000000e+000 6.153846153835e+000 0.000000000000e+000
          3.986461521768e+000 8.146114708182e+000 0.000000000000e+000
          2.411603373059e+000 6.510912162016e+000 0.000000000000e+000
          1.807525763324e+000 6.938080373464e+000 0.000000000000e+000
          1.686779352680e+000 6.178928843543e+000 0.000000000000e+000
          2.510760620997e+000 7.229076682239e+000 0.000000000000e+000
          3.166991983438e+000 6.906135870389e+000 0.000000000000e+000
          3.452788915829e+000 6.276851216781e+000 0.000000000000e+000
          3.340122000742e+000 5.656365440432e+000 0.000000000000e+000
          4.047936562877e+000 5.873561587395e+000 0.000000000000e+000
          1.802463974828e+000 1.292744708026e+001 0.000000000000e+000
          1.383967161336e+000 1.330299552906e+001 0.000000000000e+000
          1.329690820161e+000 1.266495373033e+001 0.000000000000e+000
          2.267922292389e+000 1.431116835808e+001 0.000000000000e+000
          2.854613987538e+000 1.466581611369e+001 0.000000000000e+000
          2.339869278674e+000 1.493776402241e+001 0.000000000000e+000
          4.690956878046e+000 3.115726773737e+000 0.000000000000e+000
          4.014773718330e+000 2.850429494150e+000 0.000000000000e+000
          4.643493383296e+000 2.293565471327e+000 0.000000000000e+000
          5.186083944243e+000 1.661927139510e+000 0.000000000000e+000
          5.452965511439e+000 2.679881546544e+000 0.000000000000e+000
          5.360460104304e+000 3.539902157655e+000 0.000000000000e+000
          6.197986304192e+000 3.115706366113e+000 0.000000000000e+000
          7.929356606585e-001 1.634705420870e+001 0.000000000000e+000
          1.222819867503e+000 1.599517159419e+001 0.000000000000e+000
          1.215723647926e+000 1.546209040954e+001 0.000000000000e+000
          1.770601276021e+000 1.521217632514e+001 0.000000000000e+000
          1.242830150061e+000 1.493919370237e+001 0.000000000000e+000
          1.166444124506e+000 4.610115997312e+000 0.000000000000e+000
          1.851620547934e+000 4.486892013458e+000 0.000000000000e+000
          1.494152702314e+000 5.145235789232e+000 0.000000000000e+000
          1.353088107040e+000 4.090803091641e+000 0.000000000000e+000
          3.802567455935e+000 5.084697985980e+000 0.000000000000e+000
          1.014840185783e+000 5.494768572296e+000 0.000000000000e+000
          8.831064584820e-001 5.109311190608e+000 0.000000000000e+000
          1.727903958959e+000 1.618384478933e+001 0.000000000000e+000
          1.343261525342e+000 1.651800241408e+001 0.000000000000e+000
          3.308120627291e+000 8.593311644828e+000 0.000000000000e+000
[...]
      <PointData Scalars="LIQUID_PRESSURE">
        <DataArray type="Float64" Name="LIQUID_PRESSURE" format="ascii">
          1.000037745753e+006 1.000887186331e+006 1.001138299352e+006 1.012467530192e+006 1.012613025514e+006 1.012819493210e+006 1.012805543768e+006 1.013500800016e+006 1.013562846276e+006 1.013482417074e+006 1.012701159198e+006 1.013589402851e+006 1.012372231736e+006 1.013315037878e+006 1.012582194652e+006 1.012940151645e+006 1.013283744770e+006 1.012450477709e+006 1.013470519585e+006 1.013558497952e+006 1.013368933439e+006 1.013379241298e+006 1.012818320262e+006 1.013365595962e+006 1.006696452390e+006 1.006379913644e+006 1.006189810181e+006 1.006789238805e+006 1.006083600188e+006 1.006617359876e+006 1.006379418754e+006 1.006695832930e+006 1.006192842089e+006 1.006789442023e+006 1.008574652058e+006 1.008242180784e+006 1.008108443873e+006 1.008747252055e+006 1.008541323721e+006 1.007962468284e+006 1.008241999593e+006 1.008574148872e+006 1.008108445906e+006 1.008747195992e+006 1.005645875500e+006 1.005258174954e+006 1.005030354544e+006 1.005779041132e+006 1.004901198307e+006 1.005558717772e+006 1.005263330252e+006 1.005635319082e+006 1.005050318305e+006 1.005779192772e+006 1.004807625920e+006 1.004397720270e+006 1.004326611185e+006 1.004780042890e+006 1.004402937241e+006 1.008945203054e+006 1.008820687274e+006 1.009073726704e+006 1.008947466061e+006 1.009076708551e+006 1.009281015958e+006 1.009615562952e+006 1.009375201650e+006 1.009277062076e+006 1.007326446140e+006 1.007337063525e+006 1.007190228825e+006 1.007326487216e+006 1.007336981326e+006 1.004086812390e+006 1.003983844010e+006 1.003758409191e+006 1.004138500146e+006 1.003894625460e+006 1.007941698107e+006 1.007562614047e+006 1.007554613159e+006 1.007941756339e+006 1.007562634225e+006 1.013057594013e+006 1.013406444788e+006 1.013278797070e+006 1.012589876400e+006 1.012517427739e+006 1.012378295528e+006 1.013035093190e+006 1.012868588688e+006 1.012665483553e+006 1.012749587136e+006 1.013473239976e+006 1.013453773767e+006 1.012807194187e+006 1.013430922968e+006 1.013177596841e+006 1.013249314486e+006 1.012817833102e+006 1.013353496962e+006 1.013315377218e+006 1.013138440360e+006 1.013453088648e+006 1.013299639436e+006 1.013157221785e+006 1.013270488452e+006 1.012403291817e+006 1.012474628205e+006 1.012382248366e+006 1.013267234875e+006 1.013250306118e+006 1.012577833526e+006 1.012521267925e+006 1.013594496984e+006 1.012811238910e+006 1.013536344318e+006 1.013160079852e+006 1.013165957323e+006 1.013218677579e+006 1.012577625746e+006 1.012404927528e+006 1.012373077907e+006 1.013137897670e+006 1.012578818453e+006 1.012368439416e+006 1.012374999084e+006 1.013203564095e+006 1.012394619859e+006 1.012369376215e+006 1.013295708940e+006 1.012746855293e+006 1.012497603471e+006 1.012825176534e+006 1.012375890714e+006 1.012441161920e+006 1.013077656929e+006 1.012459543883e+006 1.012400136530e+006 1.013076085264e+006 1.012409175371e+006 1.012521204604e+006 1.012557832563e+006 1.012447831466e+006 1.012581352624e+006 1.012420781948e+006 1.012587852782e+006 1.012646804128e+006 1.012547147148e+006 1.012756540774e+006 1.013281586905e+006 1.013175514053e+006 1.013356293397e+006 1.012420947551e+006 1.013059080047e+006 1.013607426833e+006 1.013186191569e+006 1.013050700394e+006 1.012615757829e+006 1.012439315527e+006 1.012875956891e+006 1.012706390508e+006 1.012549002261e+006 1.012441939614e+006 1.012453724897e+006 1.013129887329e+006 1.013335397795e+006 1.013169439386e+006 1.013341121428e+006 1.013544105275e+006 1.012877271624e+006 1.013431965713e+006 1.012720459399e+006 1.012379875311e+006 1.013102535063e+006 1.012484493253e+006 1.012971299982e+006 1.013125784898e+006 1.013322227122e+006 1.012330017650e+006 1.013314347620e+006 1.013246522655e+006 1.012645614317e+006 1.013479143711e+006 1.012534412992e+006 1.012690944981e+006 1.012434013069e+006 1.012509416687e+006 1.013182172779e+006 1.013554091183e+006 1.012920780750e+006 1.013260770083e+006 1.013572754020e+006 1.013551483181e+006 1.012378547389e+006 1.013536379845e+006 1.012715872673e+006 1.013344163997e+006 1.012528844294e+006 1.012495093310e+006 1.013295652240e+006 1.013544837231e+006 1.013121250680e+006 1.012403676753e+006 1.012346516759e+006 1.012412972792e+006 1.012940917255e+006 1.012426164046e+006 1.012466359012e+006 1.012566280352e+006 1.012362282009e+006 1.012903485677e+006 1.013553253799e+006 1.010040044474e+006 1.010034964205e+006 1.013190094702e+006 1.013548828393e+006 1.012333648473e+006 1.012888752125e+006 1.012439316367e+006 1.013357872251e+006 1.012774306719e+006 1.013484080286e+006 1.012391255315e+006 1.012822691884e+006 1.012402448406e+006 1.013302301812e+006 1.013404206139e+006 1.012465026537e+006 1.013510276588e+006 1.012377984741e+006 1.012435645581e+006 1.013018191448e+006 1.012523066290e+006 1.012746692751e+006 1.012721760117e+006 1.013286978736e+006 1.013274058222e+006 1.012352435459e+006 1.013651870903e+006 1.012968322799e+006 1.012807092666e+006 1.012833895091e+006 1.013373481704e+006 1.013351365262e+006 1.013372083897e+006 1.013374239117e+006 1.012950884010e+006 1.013186713003e+006 1.012998226157e+006 1.012358016693e+006 1.012736448813e+006 1.013235791361e+006 1.013194661912e+006 1.013310209413e+006 1.013329664480e+006 1.013069459523e+006 1.013328617185e+006 1.012996741809e+006 1.013311605626e+006 1.013146733494e+006 1.013355252641e+006 1.013330187291e+006 1.010105841407e+006 1.009995384101e+006 1.010188381485e+006 1.010497641322e+006 1.010121996415e+006 1.010107831449e+006 1.009939486160e+006 1.010137565706e+006 1.010230032207e+006 1.010513405087e+006 1.010146431020e+006 1.010120422436e+006 1.010734249839e+006 1.010422373998e+006 1.010541182018e+006 1.011213050335e+006 1.010603039228e+006 1.010606854446e+006 1.010420087356e+006 1.010739800554e+006 1.010522449951e+006 1.011212647796e+006 1.010594741562e+006 1.010609089368e+006 1.011912747630e+006 1.011912538437e+006 1.011803231878e+006 1.012016198395e+006 1.011775186799e+006 1.011920419656e+006 1.011912525020e+006 1.011912730072e+006 1.011803172882e+006 1.012016207941e+006 1.011775177284e+006 1.011920434703e+006 1.011554762766e+006 1.011815688916e+006 1.011468391296e+006 1.011765734332e+006 1.011376050248e+006 1.011626029599e+006 1.011815671566e+006 1.011554822403e+006 1.011468354013e+006 1.011765686141e+006 1.011376054463e+006 1.011626011636e+006 1.012374096953e+006 1.012219359724e+006 1.011990922497e+006 1.012200662577e+006 1.012219393270e+006 1.012374272189e+006 1.011990963736e+006 1.012200203515e+006 1.011549457142e+006 1.011093752777e+006 1.011491772166e+006 1.011313011926e+006 1.011408637657e+006 1.011505621137e+006 1.011093726279e+006 1.011549477057e+006 1.011491978855e+006 1.011313063795e+006 1.011408692990e+006 1.011505637481e+006 1.010812913405e+006 1.010810111773e+006 1.010916231331e+006 1.010811726858e+006 1.010810385353e+006 1.010915856417e+006 1.012085105685e+006 1.012233972051e+006 1.012030906154e+006 1.012085140115e+006 1.012234132800e+006 1.012030998154e+006 1.011957678314e+006 1.011957764097e+006 1.011038860154e+006 1.011058837743e+006 1.010642778284e+006 1.010988891505e+006 1.011038115387e+006 1.010989077790e+006 1.011836281795e+006 1.011789630644e+006 1.011693127486e+006 1.011921243351e+006 1.011836264717e+006 1.011921239282e+006 1.010592346741e+006 1.010698453860e+006 1.010594113172e+006 1.012252618142e+006 1.012418492753e+006 1.012419015425e+006 1.012253212220e+006 1.011350959015e+006 1.011121948190e+006 1.011121998222e+006 1.011672002196e+006 1.011475985832e+006 1.011672012710e+006 1.011555800364e+006 1.011447036019e+006 1.011555779560e+006 1.012132776519e+006 1.012132738758e+006 1.011926325058e+006 1.012107360495e+006 1.012107404709e+006 1.010560200923e+006 1.010168550000e+006 1.010557766460e+006 1.012056555693e+006 1.009969185047e+006 1.009883525378e+006 1.009964122105e+006 1.009730312007e+006 1.009463197336e+006 1.009709265951e+006 1.009447932502e+006 1.012559565878e+006 1.012635406001e+006 1.012891094055e+006 1.013038875541e+006 1.012788101217e+006 1.013118389177e+006 1.013575278914e+006 1.012868612498e+006 1.013547679265e+006 1.013103867389e+006 1.012757555434e+006 1.013040314650e+006 1.012941082944e+006 1.012591499760e+006 1.003031434181e+006 1.002118556268e+006 1.001768421895e+006 1.013348018076e+006 1.012712673062e+006 1.013185931168e+006 1.013341137784e+006 1.012960112014e+006 1.013315392940e+006 1.012332744671e+006 1.013076466029e+006 1.012963478344e+006 1.013569639164e+006 1.013170820753e+006 1.012618663322e+006 1.012661723876e+006 1.012913976939e+006 1.013547766281e+006 1.012617614494e+006 1.013382413943e+006 1.012906250119e+006 1.013326385812e+006 1.012612703524e+006 1.012577550572e+006 1.012597744170e+006 1.013141335884e+006 1.012601470183e+006 1.013338362791e+006 1.012988199152e+006 1.013068613496e+006 1.013308457698e+006 1.013079713615e+006 1.012701622049e+006 1.013181765146e+006 1.012836536474e+006 1.012432182754e+006 1.013005268462e+006 1.013335085552e+006 1.012822650876e+006 1.012421399908e+006 1.012531702653e+006 1.012834640123e+006 1.012807151307e+006 1.012772222267e+006 1.013086743430e+006 1.013128457814e+006 1.013352723784e+006 1.012926202156e+006 1.013079315792e+006 1.012471304960e+006 1.013430645272e+006 1.012438073372e+006 1.012979486155e+006 1.012732222038e+006 1.012843948165e+006 1.013091682283e+006 1.012414910291e+006 1.012540306962e+006 1.013337060076e+006 1.012419894043e+006 1.012462277988e+006 1.013081240035e+006 1.013107470600e+006 1.012537470844e+006 1.012568546850e+006 1.012531438890e+006 1.012794706286e+006 1.012455760085e+006 1.012964666292e+006 1.013075302771e+006 1.013032215649e+006 1.012492101263e+006 1.012669085743e+006 1.013175167319e+006 1.013443255438e+006 1.013110314008e+006 1.012610294228e+006 1.012672877733e+006 1.012452479830e+006 1.012392546180e+006 1.013082369089e+006 1.013386046431e+006 1.012314853587e+006 1.012378508117e+006 1.013140064169e+006 1.013582892063e+006 1.012999735508e+006 1.012450361010e+006 1.013165848951e+006 1.013281634724e+006 1.012911661832e+006 1.012556150486e+006 1.013340330389e+006 1.012779094019e+006 1.012927099748e+006 1.012906987568e+006 1.012909786873e+006 1.012361817063e+006 1.012539275549e+006 1.013043678112e+006 1.013403758613e+006 1.012848077182e+006 1.012405125725e+006 1.012685582452e+006 1.013036613958e+006 1.013066927073e+006 1.013481424404e+006 1.012663018918e+006 1.012420806839e+006 1.013221981055e+006 1.013301084846e+006 1.013220117986e+006 1.012925447783e+006 1.012350736151e+006 1.012896009789e+006 1.013409241447e+006 1.012811815988e+006 1.013421933024e+006 1.013385746296e+006 1.013134218940e+006 1.012438227026e+006 1.013345314852e+006 1.013485236327e+006 1.012386935557e+006 1.012548014675e+006 1.013211421722e+006 1.012834853406e+006 1.012608487839e+006 1.012671021415e+006 1.013372103518e+006 1.012843850411e+006 1.013145348297e+006 1.013485758890e+006 1.012572813384e+006 1.012757218804e+006 1.013077633006e+006 1.012641218194e+006 1.012771672219e+006 1.013152054585e+006 1.012470468011e+006 1.012589459694e+006 1.012592929534e+006 1.013471000073e+006 1.013602072608e+006 1.012385296768e+006 1.012457498265e+006 1.012574813505e+006 1.013139518460e+006 1.012820548748e+006 1.012858674819e+006 1.013563294255e+006 1.013320606447e+006 1.012909445704e+006 1.012958238665e+006 1.013241502173e+006 1.013370312496e+006 1.013097251321e+006 1.013023180524e+006 1.012585565998e+006 1.012747004542e+006 1.012464162576e+006 1.013589349612e+006 1.012312090582e+006 1.013152925689e+006 1.013049719679e+006 1.012709106733e+006 1.012458599619e+006 1.013186843321e+006 1.012428314877e+006 1.012337230443e+006 1.012732059060e+006 1.013281060914e+006 1.012785375655e+006 1.013147129693e+006 1.012999685234e+006 1.012760699169e+006 1.013372433854e+006 1.012574468045e+006 1.012274967287e+006 1.013410216303e+006 1.012760173201e+006 1.013485050937e+006 1.012535730132e+006 1.013223865841e+006 1.012872430949e+006 1.012371309819e+006 1.013240075584e+006 1.012660308751e+006 1.013295323174e+006 1.012476686213e+006 1.012841265166e+006 1.013070332545e+006 1.012395984439e+006 1.012435567728e+006 1.013116311225e+006 1.000501618242e+006 1.000407637779e+006 1.000327538322e+006 1.012717151498e+006 1.012904961432e+006 1.013439516164e+006 1.013199250114e+006 1.012569364373e+006 1.013356709673e+006 1.012732293030e+006 1.012440776727e+006 1.013262868867e+006 1.012744803266e+006 1.009606037350e+006 1.009618742122e+006 1.012904447499e+006 1.013369278175e+006 1.012999541719e+006 1.012742322953e+006 1.013132671617e+006 1.012410529824e+006 1.013144965758e+006 1.012567202641e+006 1.013195969315e+006 1.012798585293e+006 1.012988484266e+006 1.012736790100e+006 1.012661273165e+006 1.000079147595e+006 1.000722690907e+006 1.013193101175e+006 1.012391959093e+006 1.012481020969e+006 1.013036418537e+006 1.012512955357e+006 1.012763361475e+006 1.012346483508e+006 1.012391075166e+006 1.012342408171e+006 1.012385891497e+006 1.012453855529e+006 1.012646922435e+006 1.012423085109e+006 1.012354030117e+006 1.012101062362e+006 1.012303797191e+006 1.012355117092e+006 1.012302747911e+006 1.013206256597e+006 1.012735460048e+006 1.012732363795e+006 1.012905279203e+006 1.012773927276e+006 1.012423013483e+006 1.013332420629e+006 1.013442710848e+006 1.012388011288e+006 1.012297174234e+006 1.013553333024e+006 1.012375783319e+006 1.012553237532e+006 1.013133139122e+006 1.000497863751e+006 1.000464385807e+006 1.013105218910e+006 1.013542399373e+006 1.013129288426e+006 1.013304590507e+006 1.013173383072e+006 1.013050716880e+006 1.012545154461e+006 1.009088542331e+006 1.009081621349e+006 1.013106641806e+006 1.013146667534e+006 1.012454063884e+006 1.013052084273e+006 1.013007532905e+006 1.013171714126e+006 1.013398998632e+006 1.013055804042e+006 1.012377012671e+006 1.000194473420e+006 1.000165818443e+006 1.013130443643e+006 1.013391932548e+006 1.013345354047e+006 1.012618083668e+006 1.013225814397e+006 1.013123371991e+006 1.013319801992e+006 1.012927635138e+006 1.012192430435e+006 1.012351171413e+006 1.012359114024e+006 1.012671151818e+006 1.012499866642e+006 1.012338723879e+006 1.012691202655e+006 1.012438425695e+006 1.012453432296e+006 1.012487397688e+006 1.012302158429e+006 1.012454992709e+006 1.012468516011e+006 1.012622094314e+006 1.012420293350e+006 1.012598976722e+006 1.012420854895e+006 1.012649372248e+006 1.012537140367e+006 1.012691700958e+006 1.012708088060e+006 1.012690759775e+006 1.012700555077e+006 1.012595746574e+006 1.012563780700e+006 1.012416893490e+006 1.012565809184e+006 1.012420805281e+006 1.012952984816e+006 1.012679483815e+006 1.012839015114e+006 1.012684202714e+006 1.012845084625e+006 1.012401246070e+006 1.012317257531e+006 1.012440701734e+006 1.012400424293e+006 1.012322825649e+006 1.012400761665e+006 1.012434557341e+006 1.012369580901e+006 1.012559609213e+006 1.012706906183e+006 1.012563104044e+006 1.012735676476e+006 1.012395116833e+006 1.012481108846e+006 1.012388314380e+006 1.012473070451e+006 1.012733821152e+006 1.012694394602e+006 1.012734239832e+006 1.012692795768e+006 1.012582048813e+006 1.012366076868e+006 1.012764823575e+006 1.012808161557e+006 1.012549370835e+006 1.012574932107e+006 1.012367791278e+006 1.012583306520e+006 1.012759439471e+006 1.012807805268e+006 1.012550816475e+006 1.012576831300e+006 1.012505705204e+006 1.012495067776e+006 1.012655219819e+006 1.012503428352e+006 1.012484774241e+006 1.012657227645e+006 1.012964623261e+006 1.012782068975e+006 1.012859575570e+006 1.012956219455e+006 1.012765427485e+006 1.012858482299e+006 1.012375977515e+006 1.012767271660e+006 1.012386288720e+006 1.012381281933e+006 1.012819434401e+006 1.012410571086e+006 1.013054467265e+006 1.012456183244e+006 1.013025829769e+006 1.012477752267e+006 1.012508271388e+006 1.012903566480e+006 1.012511131880e+006 1.012894137277e+006 1.012305498396e+006 1.012424949543e+006 1.012400425949e+006 1.012307076322e+006 1.012424897843e+006 1.012400763048e+006 1.012328336462e+006 1.012568325743e+006 1.012327172246e+006 1.012568422871e+006 1.012708292520e+006 1.012713288918e+006 1.012679864417e+006 1.012677198599e+006 1.012369020422e+006 1.012353832929e+006 1.012560525453e+006 1.013096171373e+006 1.012547055947e+006 1.012878738343e+006 1.012891123171e+006 1.012866848454e+006 1.012544938202e+006 1.012555658539e+006 1.012524796156e+006 1.012951757648e+006 1.012568219597e+006 1.012947557070e+006 1.012560049826e+006 1.012742762122e+006 1.012433531090e+006 1.012723342656e+006 1.012419546936e+006 1.012447535424e+006 1.013184285091e+006 1.012556353804e+006 1.012402618767e+006 1.013201486682e+006 1.013160191240e+006 1.013078229453e+006 1.012929307958e+006 1.012846774483e+006 1.012967129032e+006 1.012937610527e+006 1.012903105696e+006 1.012534401387e+006 1.012760447863e+006 1.012392207911e+006 1.012783854738e+006 1.012585610960e+006 1.012468396920e+006 1.012600218025e+006 1.012575291742e+006 1.012553538821e+006 1.013183694791e+006 1.013288737066e+006 1.012690811198e+006 1.013073996572e+006 1.012742453526e+006 1.012857923160e+006 1.013065892163e+006 1.000000000000e+006 1.000000000000e+006 1.000163562346e+006 1.013131902121e+006 1.013425687877e+006 1.012703381092e+006 1.013249533445e+006 1.013239186045e+006 1.012517870357e+006 1.013357701596e+006 1.012857799505e+006 1.013321973389e+006 1.012631190124e+006 1.012503502714e+006 1.012482249003e+006 1.012498083233e+006 1.012755329903e+006 1.012609732552e+006 1.013135577170e+006 1.013368905272e+006 1.012827212165e+006 1.012535059434e+006 1.012597182103e+006 1.013166686086e+006 1.013059094917e+006 1.013157922923e+006 1.009122560799e+006 1.009120078795e+006 1.013461369731e+006 1.012157610251e+006 1.012157988409e+006 1.012647168147e+006 1.012766702955e+006 1.013254674822e+006 1.012545748174e+006 1.012588863339e+006 1.012387860813e+006 1.012821848349e+006 1.012849343590e+006 1.012542567441e+006 1.012779627993e+006 1.012559456876e+006 1.002491688873e+006 1.002153834234e+006 1.013329455563e+006 1.013037820308e+006 1.002743586951e+006 1.013335218498e+006 1.012847808910e+006 1.013348986975e+006 1.012890681759e+006 1.012888597451e+006 1.000318118192e+006 1.013398414224e+006 1.013291274141e+006 1.012458435664e+006 1.012624111201e+006 1.013393764632e+006 1.012348427153e+006 1.012346876892e+006 1.013430191723e+006 1.013035536446e+006 1.012896158055e+006 1.012779030278e+006 1.013324178704e+006 1.013180289704e+006 1.012501417948e+006 1.012836790488e+006 1.012932805720e+006 1.013039795368e+006 1.012708591623e+006 1.012630650636e+006 1.013367734501e+006 1.013099846703e+006 1.013381780281e+006 1.013320166963e+006 1.013040125302e+006 1.012449287433e+006 1.012474547289e+006 1.003103345349e+006 1.013112687094e+006 1.000550446440e+006 1.012605240060e+006 1.012394995483e+006 1.012812071249e+006 1.012630684240e+006 1.013020871316e+006 1.013414630948e+006 1.013016594862e+006 1.013169496702e+006 1.013319876732e+006 1.013304190959e+006 1.013335852139e+006 1.013382090179e+006 1.013280067042e+006 1.002797507150e+006 1.003301704529e+006 1.002034913707e+006 1.003615096886e+006 1.013146962297e+006 1.003335844843e+006 1.003805962427e+006 1.012501332852e+006 1.013139481929e+006 1.013277496733e+006 1.013331145819e+006 1.003388468091e+006 1.012738868090e+006 1.012765474768e+006 1.012173995848e+006 1.012173777398e+006 1.012495539579e+006 1.012492192191e+006 1.013369965378e+006 1.013155045362e+006 1.012278412020e+006 1.012281163115e+006 1.012236714534e+006 1.012254465107e+006 1.013141463300e+006 1.013248828630e+006 
        </DataArray>
        <DataArray type="Float64" Name="MEAN_PRESSURE" format="ascii">