<?xml version="1.0"?>
<VTKFile type="UnstructuredGrid" version="0.1" byte_order="LittleEndian">
  <UnstructuredGrid>
    <Piece NumberOfPoints="963" NumberOfCells="1758">
      <Points>
        <DataArray type="Float64" NumberOfComponents="3" format="ascii">
          1.600262034769e+002 1.257989505921e+001 0.000000000000e+000
          1.635346199106e+002 2.000000000000e+001 0.000000000000e+000
          1.554515002484e+002 2.000000000000e+001 0.000000000000e+000
          3.459306441575e+000 1.667621982453e+001 0.000000000000e+000
          3.062266634850e+000 1.705413688405e+001 0.000000000000e+000
          2.873380769063e+000 1.650527725632e+001 0.000000000000e+000
          1.514088444034e+000 1.865189448105e+001 0.000000000000e+000
          1.967902677551e+000 1.834103489750e+001 0.000000000000e+000
          2.034564522234e+000 1.890806711991e+001 0.000000000000e+000
          2.478275273162e+000 1.702762299110e+001 0.000000000000e+000
          2.952621433467e+000 1.774357373580e+001 0.000000000000e+000
          2.237893542067e+000 1.782457469610e+001 0.000000000000e+000
          3.313583922780e+000 3.274674552047e+000 0.000000000000e+000
          2.561432712787e+000 3.156040447793e+000 0.000000000000e+000
          3.047531989640e+000 2.714594415171e+000 0.000000000000e+000
          2.750804692284e+000 3.936058190693e+000 0.000000000000e+000
          2.599039179818e+000 2.451529939148e+000 0.000000000000e+000
          3.139686649742e+000 2.186924052088e+000 0.000000000000e+000
          1.919984553221e+000 3.358010194268e+000 0.000000000000e+000
          1.960900304591e+000 2.773319745251e+000 0.000000000000e+000
          1.894565400391e+000 1.733316857565e+001 0.000000000000e+000
          0.000000000000e+000 1.538461538461e+001 0.000000000000e+000
          5.816229249735e-001 1.567919247147e+001 0.000000000000e+000
          0.000000000000e+000 1.589743589743e+001 0.000000000000e+000
          9.766405669483e+001 2.000000000000e+001 0.000000000000e+000
          1.010672711393e+002 1.500000000000e+001 0.000000000000e+000
          1.029329279907e+002 2.000000000000e+001 0.000000000000e+000
          9.588503785413e+001 1.500000000000e+001 0.000000000000e+000
          1.039231647117e+002 1.000000000000e+001 0.000000000000e+000
          9.860830811271e+001 1.000000000000e+001 0.000000000000e+000
          1.010672711397e+002 5.000000000000e+000 0.000000000000e+000
          9.766405669557e+001 0.000000000000e+000 0.000000000000e+000
          1.029329279915e+002 0.000000000000e+000 0.000000000000e+000
          9.588503785449e+001 5.000000000000e+000 0.000000000000e+000
          7.892434178002e+001 2.000000000000e+001 0.000000000000e+000
          8.173808356948e+001 1.500000000000e+001 0.000000000000e+000
          8.328058896910e+001 2.000000000000e+001 0.000000000000e+000
          7.679274808893e+001 1.514423393202e+001 0.000000000000e+000
          7.970503892166e+001 1.000000000000e+001 0.000000000000e+000
          8.409930620613e+001 1.000000000000e+001 0.000000000000e+000
          8.173808356980e+001 5.000000000000e+000 0.000000000000e+000
          7.892434178065e+001 0.000000000000e+000 0.000000000000e+000
          8.328058896976e+001 0.000000000000e+000 0.000000000000e+000
          7.679274808925e+001 4.855766067979e+000 0.000000000000e+000
          1.084583939765e+002 2.000000000000e+001 0.000000000000e+000
          1.122011528880e+002 1.500000000000e+001 0.000000000000e+000
          1.142529496098e+002 2.000000000000e+001 0.000000000000e+000
          1.065018792644e+002 1.500000000000e+001 0.000000000000e+000
          1.153419838410e+002 1.000000000000e+001 0.000000000000e+000
          1.094968549120e+002 1.000000000000e+001 0.000000000000e+000
          1.122011528884e+002 5.000000000000e+000 0.000000000000e+000
          1.084583939773e+002 0.000000000000e+000 0.000000000000e+000
          1.142529496106e+002 0.000000000000e+000 0.000000000000e+000
          1.065018792648e+002 5.000000000000e+000 0.000000000000e+000
          1.181779812237e+002 1.500000000000e+001 0.000000000000e+000
          1.203297004775e+002 2.000000000000e+001 0.000000000000e+000
          1.214717707847e+002 1.000000000000e+001 0.000000000000e+000
          1.181779812242e+002 5.000000000000e+000 0.000000000000e+000
          1.203297004784e+002 0.000000000000e+000 0.000000000000e+000
          7.477039199538e+001 2.000000000000e+001 0.000000000000e+000
          7.551483469771e+001 1.000000000000e+001 0.000000000000e+000
          7.296959467356e+001 1.385646386579e+001 0.000000000000e+000
          7.477039199599e+001 0.000000000000e+000 0.000000000000e+000
          7.296959467379e+001 6.143536134207e+000 0.000000000000e+000
          6.918477198508e+001 1.366665532880e+001 0.000000000000e+000
          6.746477463053e+001 1.000000000000e+001 0.000000000000e+000
          7.151921701478e+001 1.000000000000e+001 0.000000000000e+000
          6.918477198529e+001 6.333344671202e+000 0.000000000000e+000
          9.263986346551e+001 2.000000000000e+001 0.000000000000e+000
          9.094345943471e+001 1.500000000000e+001 0.000000000000e+000
          9.354026529380e+001 1.000000000000e+001 0.000000000000e+000
          9.263986346623e+001 0.000000000000e+000 0.000000000000e+000
          9.094345943506e+001 5.000000000000e+000 0.000000000000e+000
          1.244344522558e+002 1.503312574389e+001 0.000000000000e+000
          1.267023895482e+002 2.000000000000e+001 0.000000000000e+000
          1.285510028831e+002 1.020485663255e+001 0.000000000000e+000
          1.244344522563e+002 5.033125743893e+000 0.000000000000e+000
          1.267023895491e+002 0.000000000000e+000 0.000000000000e+000
          8.623136018348e+001 1.500000000000e+001 0.000000000000e+000
          8.784898578901e+001 2.000000000000e+001 0.000000000000e+000
          8.870757443665e+001 1.000000000000e+001 0.000000000000e+000
          8.623136018382e+001 5.000000000000e+000 0.000000000000e+000
          8.784898578969e+001 0.000000000000e+000 0.000000000000e+000
          4.872472752737e+000 0.000000000000e+000 0.000000000000e+000
          4.204479229380e+000 6.412840757122e-001 0.000000000000e+000
          4.157376851380e+000 0.000000000000e+000 0.000000000000e+000
          5.192892237051e+000 7.280355562789e-001 0.000000000000e+000
          1.306630304579e+000 6.212843344151e-001 0.000000000000e+000
          1.050228457081e+000 0.000000000000e+000 0.000000000000e+000
          1.614006202528e+000 0.000000000000e+000 0.000000000000e+000
          1.266763055794e+001 1.554696422866e+001 0.000000000000e+000
          1.263589100638e+001 1.657720348306e+001 0.000000000000e+000
          1.174268578662e+001 1.633018318031e+001 0.000000000000e+000
          6.588835695415e+000 7.505681085529e+000 0.000000000000e+000
          6.456871838389e+000 6.658671683861e+000 0.000000000000e+000
          7.208099140752e+000 7.038822846307e+000 0.000000000000e+000
          4.412623338166e+000 9.138856431549e+000 0.000000000000e+000
          4.024185797397e+000 8.708923235630e+000 0.000000000000e+000
          4.601447447338e+000 8.507292699647e+000 0.000000000000e+000
          5.325995059827e-001 6.308307298123e+000 0.000000000000e+000
          0.000000000000e+000 6.666666666655e+000 0.000000000000e+000
          0.000000000000e+000 6.153846153835e+000 0.000000000000e+000
          3.986461521768e+000 8.146114708182e+000 0.000000000000e+000
          2.411603373059e+000 6.510912162016e+000 0.000000000000e+000
          1.807525763324e+000 6.938080373464e+000 0.000000000000e+000
          1.686779352680e+000 6.178928843543e+000 0.000000000000e+000
          2.510760620997e+000 7.229076682239e+000 0.000000000000e+000
          3.166991983438e+000 6.906135870389e+000 0.000000000000e+000
          3.452788915829e+000 6.276851216781e+000 0.000000000000e+000
          3.340122000742e+000 5.656365440432e+000 0.000000000000e+000
          4.047936562877e+000 5.873561587395e+000 0.000000000000e+000
          1.802463974828e+000 1.292744708026e+001 0.000000000000e+000
          1.383967161336e+000 1.330299552906e+001 0.000000000000e+000
          1.329690820161e+000 1.266495373033e+001 0.000000000000e+000
          2.267922292389e+000 1.431116835808e+001 0.000000000000e+000
          2.854613987538e+000 1.466581611369e+001 0.000000000000e+000
          2.339869278674e+000 1.493776402241e+001 0.000000000000e+000
          4.690956878046e+000 3.115726773737e+000 0.000000000000e+000
          4.014773718330e+000 2.850429494150e+000 0.000000000000e+000
          4.643493383296e+000 2.293565471327e+000 0.000000000000e+000
          5.186083944243e+000 1.661927139510e+000 0.000000000000e+000
          5.452965511439e+000 2.679881546544e+000 0.000000000000e+000
          5.360460104304e+000 3.539902157655e+000 0.000000000000e+000
          6.197986304192e+000 3.115706366113e+000 0.000000000000e+000
          7.929356606585e-001 1.634705420870e+001 0.000000000000e+000
          1.222819867503e+000 1.599517159419e+001 0.000000000000e+000
          1.215723647926e+000 1.546209040954e+001 0.000000000000e+000
          1.770601276021e+000 1.521217632514e+001 0.000000000000e+000
          1.242830150061e+000 1.493919370237e+001 0.000000000000e+000
          1.166444124506e+000 4.610115997312e+000 0.000000000000e+000
          1.851620547934e+000 4.486892013458e+000 0.000000000000e+000
          1.494152702314e+000 5.145235789232e+000 0.000000000000e+000
          1.353088107040e+000 4.090803091641e+000 0.000000000000e+000
          3.802567455935e+000 5.084697985980e+000 0.000000000000e+000
          1.014840185783e+000 5.494768572296e+000 0.000000000000e+000
          8.831064584820e-001 5.109311190608e+000 0.000000000000e+000
          1.727903958959e+000 1.618384478933e+001 0.000000000000e+000
          1.343261525342e+000 1.651800241408e+001 0.000000000000e+000
          3.308120627291e+000 8.593311644828e+000 0.000000000000e+000
[...]
      <PointData Scalars="LIQUID_PRESSURE">
        <DataArray type="Float64" Name="LIQUID_PRESSURE" format="ascii">
          9.997767841255e+005 1.001223974611e+006 1.000015353006e+006 9.999654160886e+005 1.000123550579e+006 1.000332427194e+006 1.000269860161e+006 1.000909235005e+006 1.000958976134e+006 1.000934324933e+006 1.000224304174e+006 1.000998373176e+006 9.998892634910e+005 1.000768457894e+006 1.000102800459e+006 1.000421140415e+006 1.000756157373e+006 9.999688720707e+005 1.000879856674e+006 1.000954421926e+006 1.000780954766e+006 1.000830400972e+006 1.000391208276e+006 1.000822032376e+006 1.000323770294e+006 1.000325154804e+006 1.000313948696e+006 1.000320870349e+006 1.000311742649e+006 1.000323233954e+006 1.000325031587e+006 1.000323723132e+006 1.000314336562e+006 1.000320983267e+006 1.000362865083e+006 1.000344203437e+006 1.000349794317e+006 1.000362440110e+006 1.000372213738e+006 1.000339659200e+006 1.000344335334e+006 1.000362891595e+006 1.000349809255e+006 1.000361879251e+006 1.000308480291e+006 1.000295720213e+006 1.000290055565e+006 1.000305261930e+006 1.000286294963e+006 1.000306530592e+006 1.000296230858e+006 1.000307826448e+006 1.000290889338e+006 1.000305370177e+006 1.000289100455e+006 1.000273667782e+006 1.000275520630e+006 1.000287235273e+006 1.000271626527e+006 1.000376434688e+006 1.000348631217e+006 1.000350482018e+006 1.000376409676e+006 1.000351578755e+006 1.000321985935e+006 1.000348853673e+006 1.000422993544e+006 1.000322045606e+006 1.000351727265e+006 1.000332340771e+006 1.000346203991e+006 1.000351756618e+006 1.000332319827e+006 1.000274290371e+006 1.000282902021e+006 1.000269036349e+006 1.000275642554e+006 1.000281266050e+006 1.000364670488e+006 1.000327922609e+006 1.000333820284e+006 1.000364660747e+006 1.000327920804e+006 1.000634302194e+006 1.000842497692e+006 1.000710825963e+006 1.000160669937e+006 1.000015271844e+006 9.999128820149e+005 1.000469003459e+006 1.000495346326e+006 1.000280044778e+006 1.000367430053e+006 1.000986072286e+006 1.000944555703e+006 1.000373492800e+006 1.000953684415e+006 1.000645291321e+006 1.000761403690e+006 1.000397345203e+006 1.000883009309e+006 1.000841576440e+006 1.000616120408e+006 1.000902778222e+006 1.000723636404e+006 1.000581833350e+006 1.000747807694e+006 9.999186590550e+005 9.999468198438e+005 9.998961594779e+005 1.000730946214e+006 1.000674885817e+006 1.000065212527e+006 1.000008795679e+006 1.001018649468e+006 1.000334611179e+006 1.000986401721e+006 1.000701736935e+006 1.000652364979e+006 1.000741796722e+006 1.000149450160e+006 9.999664241774e+005 9.999252742776e+005 1.000627536982e+006 1.000171711291e+006 9.998961570307e+005 9.998959382516e+005 1.000631390056e+006 9.999049542580e+005 9.999047994682e+005 1.000686445120e+006 1.000200499247e+006 9.999870452022e+005 1.000279370165e+006 9.999230189330e+005 1.000025070381e+006 1.000517670633e+006 9.999612545301e+005 9.998929868323e+005 1.000567802877e+006 9.999004700006e+005 1.000096896866e+006 1.000147279826e+006 9.999499931985e+005 1.000167180200e+006 9.999879183726e+005 1.000054350686e+006 1.000170643070e+006 1.000134579573e+006 1.000271506539e+006 1.000741538439e+006 1.000720308527e+006 1.000778436169e+006 9.999280990864e+005 1.000492740404e+006 1.000997414085e+006 1.000658590404e+006 1.000630096193e+006 1.000152053028e+006 9.999461912329e+005 1.000364335188e+006 1.000165385532e+006 1.000025999478e+006 1.000014769527e+006 1.000057145467e+006 1.000572752086e+006 1.000756117625e+006 1.000707922351e+006 1.000765456931e+006 1.000977696313e+006 1.000327671304e+006 1.000884047922e+006 1.000187409830e+006 9.999210013182e+005 1.000588554275e+006 9.999682476021e+005 1.000475738673e+006 1.000685521403e+006 1.000782661686e+006 9.998837357185e+005 1.000717048255e+006 1.000663557093e+006 1.000165969588e+006 1.000934493471e+006 1.000128992431e+006 1.000294757041e+006 9.999290816890e+005 9.999882273428e+005 1.000608007865e+006 1.000978875532e+006 1.000415268292e+006 1.000797518413e+006 1.000997824866e+006 1.000987532598e+006 9.999600666676e+005 1.000978382980e+006 1.000184759484e+006 1.000806244246e+006 1.000022224486e+006 9.999718760659e+005 1.000748600465e+006 1.000942294593e+006 1.000545761301e+006 9.999101205951e+005 9.998976046913e+005 9.999002536314e+005 1.000390590492e+006 9.999288891060e+005 9.999785091662e+005 1.000050053586e+006 9.999230802362e+005 1.000345318604e+006 1.000964886947e+006 1.000459301697e+006 1.000454984746e+006 1.000685033759e+006 1.000981302519e+006 9.999183319877e+005 1.000379133351e+006 9.999812867940e+005 1.000883813832e+006 1.000237565474e+006 1.000979388595e+006 9.999269393751e+005 1.000282029904e+006 9.999443460586e+005 1.000717840099e+006 1.000872820999e+006 1.000030216227e+006 1.000916634524e+006 9.998972160619e+005 9.999491341041e+005 1.000517279655e+006 9.999934439677e+005 1.000340411278e+006 1.000212040832e+006 1.000698852479e+006 1.000680995420e+006 9.998740178508e+005 1.001055923837e+006 1.000410700707e+006 1.000409586319e+006 1.000409327639e+006 1.000878775232e+006 1.000826553438e+006 1.000859803408e+006 1.000876204190e+006 1.000531417127e+006 1.000663756604e+006 1.000584758291e+006 9.999128789554e+005 1.000349936072e+006 1.000691474458e+006 1.000705931103e+006 1.000733015968e+006 1.000753129654e+006 1.000648491838e+006 1.000747045711e+006 1.000589269573e+006 1.000746422633e+006 1.000692667071e+006 1.000769868062e+006 1.000743939264e+006 1.000295137451e+006 1.000363337067e+006 1.000493486339e+006 1.000463289854e+006 1.000465403826e+006 1.000312783549e+006 1.000340161967e+006 1.000305893274e+006 1.000526304320e+006 1.000469179216e+006 1.000479126940e+006 1.000318255653e+006 1.000354511565e+006 1.000293409160e+006 1.000434059139e+006 1.000584717990e+006 1.000436852639e+006 1.000324273228e+006 1.000294019645e+006 1.000358843921e+006 1.000422978428e+006 1.000583903591e+006 1.000431949729e+006 1.000325976561e+006 1.000388863865e+006 1.000432546943e+006 1.000414910735e+006 1.000410082682e+006 1.000390039867e+006 1.000398256610e+006 1.000432556029e+006 1.000388864083e+006 1.000414897347e+006 1.000410055989e+006 1.000390044434e+006 1.000398243585e+006 1.000324605106e+006 1.000538666947e+006 1.000353660944e+006 1.000412176576e+006 1.000318679027e+006 1.000377993552e+006 1.000538661323e+006 1.000324650941e+006 1.000353634743e+006 1.000412163637e+006 1.000318681226e+006 1.000377994852e+006 1.000515350619e+006 1.000437056662e+006 1.000297700025e+006 1.000349655044e+006 1.000437010299e+006 1.000515282684e+006 1.000297649736e+006 1.000349277021e+006 1.000493160126e+006 1.000298502319e+006 1.000583295522e+006 1.000345638229e+006 1.000537125426e+006 1.000481187182e+006 1.000298433782e+006 1.000493153183e+006 1.000583450288e+006 1.000345664748e+006 1.000537138566e+006 1.000481187549e+006 1.000301494126e+006 1.000274090108e+006 1.000352990619e+006 1.000300433967e+006 1.000274371593e+006 1.000352650211e+006 1.000424764353e+006 1.000490934645e+006 1.000409458688e+006 1.000424743951e+006 1.000490938296e+006 1.000409455108e+006 1.000301453639e+006 1.000301628762e+006 1.000497814908e+006 1.000404447489e+006 1.000312179708e+006 1.000329130551e+006 1.000497102096e+006 1.000329308841e+006 1.000444937253e+006 1.000379911655e+006 1.000396001290e+006 1.000418544328e+006 1.000444932031e+006 1.000418535883e+006 1.000349738396e+006 1.000436651218e+006 1.000351204512e+006 1.000423579758e+006 1.000535306571e+006 1.000534889717e+006 1.000423342820e+006 1.000495329099e+006 1.000292252891e+006 1.000292245729e+006 1.000439822813e+006 1.000344371560e+006 1.000439833763e+006 1.000456843666e+006 1.000428291565e+006 1.000456830038e+006 1.000435375374e+006 1.000435352236e+006 1.000385406359e+006 1.000461988982e+006 1.000461985068e+006 1.000450656904e+006 1.000343441092e+006 1.000450290888e+006 1.000384999071e+006 1.000343643117e+006 1.000363924720e+006 1.000339087184e+006 1.000396369833e+006 1.000294660211e+006 1.000393113088e+006 1.000289296551e+006 1.000124579591e+006 1.000151742094e+006 1.000464461278e+006 1.000575374546e+006 1.000274769586e+006 1.000601484276e+006 1.001004833052e+006 1.000380509404e+006 1.000946009072e+006 1.000660872294e+006 1.000311775812e+006 1.000483198409e+006 1.000530100390e+006 1.000092725823e+006 1.000207355787e+006 9.999807947033e+005 1.000855021003e+006 1.000892823999e+006 1.000236766829e+006 1.000732323849e+006 1.000850197540e+006 1.000417674425e+006 1.000769359103e+006 9.998648370628e+005 1.000533069779e+006 1.000409053711e+006 1.000992143340e+006 1.000603968868e+006 1.000190394063e+006 1.000196279127e+006 1.000449403182e+006 1.000974078334e+006 1.000137342812e+006 1.000893858089e+006 1.000496480905e+006 1.000810148760e+006 1.000096101768e+006 1.000153265872e+006 1.000163377982e+006 1.000695550672e+006 1.000118389052e+006 1.000849423512e+006 1.000481613126e+006 1.000660107433e+006 1.000837276825e+006 1.000600283992e+006 1.000293936395e+006 1.000626048463e+006 1.000276517462e+006 9.999112551309e+005 1.000496866274e+006 1.000879539149e+006 1.000438153254e+006 1.000019863470e+006 1.000012271795e+006 1.000332698481e+006 1.000392691209e+006 1.000393226855e+006 1.000690185884e+006 1.000687462244e+006 1.000866478954e+006 1.000505895256e+006 1.000641814947e+006 1.000049948448e+006 1.000918203778e+006 9.999718053342e+005 1.000482179579e+006 1.000401905912e+006 1.000488195504e+006 1.000540004580e+006 9.999285866728e+005 1.000090429987e+006 1.000859297064e+006 9.999617722647e+005 1.000039777382e+006 1.000624295025e+006 1.000612359430e+006 1.000074915264e+006 1.000118210278e+006 1.000079996463e+006 1.000376144482e+006 1.000078559334e+006 1.000570593919e+006 1.000663183049e+006 1.000616981492e+006 1.000084315858e+006 1.000281947429e+006 1.000791035510e+006 1.000888470311e+006 1.000547984896e+006 1.000179818160e+006 1.000236455340e+006 9.999926903753e+005 9.999027309572e+005 1.000629135150e+006 1.000889324950e+006 9.998542606123e+005 9.999399319354e+005 1.000627313925e+006 1.001003875331e+006 1.000505264528e+006 9.999959058400e+005 1.000698479163e+006 1.000825102638e+006 1.000490503930e+006 1.000108399345e+006 1.000918353720e+006 1.000372529000e+006 1.000461271185e+006 1.000370204570e+006 1.000380376695e+006 9.999263577259e+005 1.000081652940e+006 1.000596898212e+006 1.000932858047e+006 1.000397418407e+006 9.999585023564e+005 1.000253989107e+006 1.000653354466e+006 1.000657960532e+006 1.000936210388e+006 1.000131265920e+006 9.999998348445e+005 1.000856255652e+006 1.000812315049e+006 1.000817857753e+006 1.000468768716e+006 9.998984993486e+005 1.000490799019e+006 1.000938170849e+006 1.000380765963e+006 1.000925825234e+006 1.000931434354e+006 1.000644479290e+006 9.999767854162e+005 1.000890956613e+006 1.000893265838e+006 9.998876010598e+005 1.000082351380e+006 1.000665563354e+006 1.000415568609e+006 1.000141215189e+006 1.000222637068e+006 1.000901637204e+006 1.000408390110e+006 1.000583111900e+006 1.000930958236e+006 1.000111339684e+006 1.000335819075e+006 1.000630345395e+006 1.000191994830e+006 1.000279733329e+006 1.000746201004e+006 1.000090660037e+006 1.000208316820e+006 1.000111315781e+006 1.000941327080e+006 1.001009393693e+006 9.999744265358e+005 1.000044583780e+006 1.000168083064e+006 1.000715133171e+006 1.000393835365e+006 1.000426648264e+006 1.000976724234e+006 1.000721748724e+006 1.000407373804e+006 1.000538443626e+006 1.000880880757e+006 1.000895464739e+006 1.000592851755e+006 1.000531475689e+006 1.000119716262e+006 1.000356169178e+006 1.000060964649e+006 1.001003772363e+006 9.998509709151e+005 1.000697478003e+006 1.000502125728e+006 1.000179230541e+006 1.000016944465e+006 1.000782373283e+006 9.999912467195e+005 9.998838271347e+005 1.000330066309e+006 1.000826016030e+006 1.000352204048e+006 1.000732840876e+006 1.000510247139e+006 1.000328630109e+006 1.000880046324e+006 1.000134908892e+006 9.998476694572e+005 1.000853527970e+006 1.000266734877e+006 1.000917697634e+006 1.000057001047e+006 1.000817214861e+006 1.000408209894e+006 9.998838866992e+005 1.000832532014e+006 1.000199184952e+006 1.000901538006e+006 9.999990304025e+005 1.000421373236e+006 1.000639453285e+006 9.999710493615e+005 9.999934987731e+005 1.000700464858e+006 1.000842191112e+006 1.000744070748e+006 1.000576992817e+006 1.000213757898e+006 1.000496220159e+006 1.000894873291e+006 1.000670231708e+006 1.000074466532e+006 1.000885057854e+006 1.000251573680e+006 9.999240983419e+005 1.000820140904e+006 1.000314186923e+006 1.000467542618e+006 1.000471989058e+006 1.000495529212e+006 1.000873670624e+006 1.000442373334e+006 1.000281955975e+006 1.000732338774e+006 9.999422085074e+005 1.000682803263e+006 1.000162188931e+006 1.000724558669e+006 1.000265095430e+006 1.000615783179e+006 1.000274085034e+006 1.000219077132e+006 1.000109664553e+006 1.000579294716e+006 1.000654189418e+006 9.999108289059e+005 9.999940234852e+005 1.000556385806e+006 1.000021551773e+006 1.000340514652e+006 1.000398014820e+006 1.000464710675e+006 1.000396191976e+006 1.000460548157e+006 9.999436342255e+005 1.000241254795e+006 9.999689720627e+005 9.999105134092e+005 1.000276171406e+006 1.000448428231e+006 1.000522302350e+006 1.000448161265e+006 1.000828330793e+006 1.000357478706e+006 1.000194184800e+006 1.000473639323e+006 1.000238349464e+006 9.999385301494e+005 1.000781159081e+006 1.000937175096e+006 9.999269437312e+005 9.998544933473e+005 1.000957520368e+006 9.998733188300e+005 1.000157521803e+006 1.000727314648e+006 1.001116964735e+006 1.000804525166e+006 1.000675337056e+006 1.000934686311e+006 1.000553286646e+006 1.000767186315e+006 1.000687906770e+006 1.000627741991e+006 1.000113965224e+006 1.000271771864e+006 1.000271021845e+006 1.000725938845e+006 1.000658556548e+006 1.000138634134e+006 1.000675691915e+006 1.000660344759e+006 1.000743776623e+006 1.000874167964e+006 1.000522038185e+006 1.000010984410e+006 1.000347987428e+006 1.000294623488e+006 1.000779222178e+006 1.000900058593e+006 1.000828559917e+006 1.000208915643e+006 1.000659701532e+006 1.000681364851e+006 1.000748219014e+006 1.000551044321e+006 1.000231214576e+006 1.000416989261e+006 1.000497949025e+006 1.000611070116e+006 1.000476795847e+006 1.000411982616e+006 1.000623184526e+006 1.000418953310e+006 1.000379259170e+006 1.000402246064e+006 1.000254086601e+006 1.000363050158e+006 1.000385741974e+006 1.000524341655e+006 1.000305553907e+006 1.000463363729e+006 1.000297857139e+006 1.000509330358e+006 1.000401932921e+006 1.000519304446e+006 1.000526688799e+006 1.000519716521e+006 1.000517927635e+006 1.000380531037e+006 1.000342719442e+006 1.000218130181e+006 1.000342940193e+006 1.000220551351e+006 1.000670411577e+006 1.000389669122e+006 1.000581289884e+006 1.000395091541e+006 1.000590016732e+006 1.000441708885e+006 1.000366586422e+006 1.000450317566e+006 1.000381068541e+006 1.000377234374e+006 1.000441197392e+006 1.000448900222e+006 1.000352283871e+006 1.000463427825e+006 1.000569030423e+006 1.000460424533e+006 1.000596474687e+006 1.000261545738e+006 1.000325086288e+006 1.000254972224e+006 1.000312749704e+006 1.000554175684e+006 1.000475752251e+006 1.000554617817e+006 1.000476601490e+006 1.000440066971e+006 1.000205128411e+006 1.000657214158e+006 1.000609612479e+006 1.000454299866e+006 1.000369985270e+006 1.000207216940e+006 1.000441387677e+006 1.000652216062e+006 1.000610485767e+006 1.000455268668e+006 1.000371109985e+006 1.000326909086e+006 1.000251676507e+006 1.000446070444e+006 1.000328580195e+006 1.000246362051e+006 1.000450056321e+006 1.000692019969e+006 1.000526135384e+006 1.000601631403e+006 1.000688968792e+006 1.000504377085e+006 1.000602613488e+006 1.000105194065e+006 1.000481030533e+006 1.000122146105e+006 1.000105953579e+006 1.000513617062e+006 1.000140142362e+006 1.000762410381e+006 1.000160295260e+006 1.000732508244e+006 1.000153243506e+006 1.000289104865e+006 1.000631940513e+006 1.000289091940e+006 1.000627579771e+006 1.000343809318e+006 1.000469934091e+006 1.000425750619e+006 1.000345944153e+006 1.000469458360e+006 1.000426046061e+006 1.000303204013e+006 1.000527667297e+006 1.000302760085e+006 1.000526959933e+006 1.000553674425e+006 1.000556965821e+006 1.000488836113e+006 1.000487852134e+006 1.000188252957e+006 1.000179807715e+006 1.000164774891e+006 1.000666381442e+006 1.000119519625e+006 1.000455748188e+006 1.000646111834e+006 1.000619594538e+006 1.000194181460e+006 1.000204150537e+006 1.000218786337e+006 1.000638133058e+006 1.000289425740e+006 1.000639814204e+006 1.000287697581e+006 1.000466414823e+006 1.000161858570e+006 1.000450691124e+006 1.000154498282e+006 1.000146763750e+006 1.000717588024e+006 1.000250728500e+006 9.999533798093e+005 1.000815836293e+006 1.000781592764e+006 1.000680480800e+006 1.000613767541e+006 1.000507838786e+006 1.000656739012e+006 1.000633539675e+006 1.000591711733e+006 1.000193840802e+006 1.000407957195e+006 1.000091463715e+006 1.000468163312e+006 1.000250801193e+006 1.000116879719e+006 1.000259424183e+006 1.000195019907e+006 1.000252292248e+006 1.000805374716e+006 1.000826789596e+006 1.000262727306e+006 1.000673415473e+006 1.000252271474e+006 1.000444194004e+006 1.000687340394e+006 1.000000000000e+006 1.000000000000e+006 1.000292052094e+006 1.000709947151e+006 1.000916977981e+006 1.000184953533e+006 1.000756190057e+006 1.000761234345e+006 9.999992089538e+005 1.000873842749e+006 1.000386962306e+006 1.000821965124e+006 1.000168073280e+006 1.000116175829e+006 1.000103246082e+006 9.999618736728e+005 1.000300471932e+006 1.000184342658e+006 1.000773024286e+006 1.000906396643e+006 1.000416108851e+006 1.000146750972e+006 1.000166655486e+006 1.000785619272e+006 1.000747724910e+006 1.000718627672e+006 1.000369906374e+006 1.000367905051e+006 1.000921065613e+006 1.000381287513e+006 1.000381511963e+006 1.000239929438e+006 1.000332533649e+006 1.000768166094e+006 1.000206862804e+006 1.000088426952e+006 9.999417934854e+005 1.000279434655e+006 1.000531964028e+006 1.000195376536e+006 1.000423266766e+006 1.000108095984e+006 1.000234769989e+006 1.000125706655e+006 1.000863874391e+006 1.000641547291e+006 1.000297662257e+006 1.000828553006e+006 1.000452787372e+006 1.000836950992e+006 1.000546104419e+006 1.000442650702e+006 1.000566215955e+006 1.000856282772e+006 1.000733918765e+006 9.999575850362e+005 1.000269977609e+006 1.000894312076e+006 1.000416665604e+006 1.000416014065e+006 1.000925731601e+006 1.000617094658e+006 1.000454172300e+006 1.000215958336e+006 1.000850427181e+006 1.000732949423e+006 9.999909313666e+005 1.000341519410e+006 1.000409118980e+006 1.000622693231e+006 1.000256640823e+006 1.000183162483e+006 1.000857084939e+006 1.000649788004e+006 1.000854011047e+006 1.000883036702e+006 1.000635453537e+006 9.999435151892e+005 1.000085237771e+006 1.000276871889e+006 1.000761460932e+006 1.000939553737e+006 1.000247367594e+006 9.999353900513e+005 1.000426855699e+006 1.000151964632e+006 1.000686141733e+006 1.000961790878e+006 1.000734863518e+006 1.000726788580e+006 1.000796409822e+006 1.000763426777e+006 1.000777842147e+006 1.000871265964e+006 1.000782788330e+006 1.000311330218e+006 1.000239371797e+006 1.000122034436e+006 1.000269551030e+006 1.000691069694e+006 1.000250961245e+006 1.000364221471e+006 1.000080075311e+006 1.000705600792e+006 1.000736540908e+006 1.000873180075e+006 1.000236242514e+006 1.000250154661e+006 1.000298859797e+006 1.000380879181e+006 1.000380586951e+006 1.000469036218e+006 1.000465261874e+006 1.000844806151e+006 1.000711017013e+006 1.000249886856e+006 1.000255605340e+006 1.000263256879e+006 1.000276652733e+006 1.000697803804e+006 1.000714605870e+006 
        </DataArray>
        <DataArray type="Float64" Name="MEAN_PRESSURE" format="ascii">