<?xml version="1.0"?>
<VTKFile type="UnstructuredGrid" version="0.1" byte_order="LittleEndian">
  <UnstructuredGrid>
    <Piece NumberOfPoints="963" NumberOfCells="1758">
      <Points>
        <DataArray type="Float64" NumberOfComponents="3" format="ascii">
          1.600262034769e+002 1.257989505921e+001 0.000000000000e+000
          1.635346199106e+002 2.000000000000e+001 0.000000000000e+000
          1.554515002484e+002 2.000000000000e+001 0.000000000000e+000
          3.459306441575e+000 1.667621982453e+001 0.000000000000e+000
          3.062266634850e+000 1.705413688405e+001 0.000000000000e+000
          2.873380769063e+000 1.650527725632e+001 0.000000000000e+000
          1.514088444034e+000 1.865189448105e+001 0.000000000000e+000
          1.967902677551e+000 1.834103489750e+001 0.000000000000e+000
          2.034564522234e+000 1.890806711991e+001 0.000000000000e+000
          2.478275273162e+000 1.702762299110e+001 0.000000000000e+000
          2.952621433467e+000 1.774357373580e+001 0.000000000000e+000
          2.237893542067e+000 1.782457469610e+001 0.000000000000e+000
          3.313583922780e+000 3.274674552047e+000 0.000000000000e+000
          2.561432712787e+000 3.156040447793e+000 0.000000000000e+000
          3.047531989640e+000 2.714594415171e+000 0.000000000000e+000
          2.750804692284e+000 3.936058190693e+000 0.000000000000e+000
          2.599039179818e+000 2.451529939148e+000 0.000000000000e+000
          3.139686649742e+000 2.186924052088e+000 0.000000000000e+000
          1.919984553221e+000 3.358010194268e+000 0.000000000000e+000
          1.960900304591e+000 2.773319745251e+000 0.000000000000e+000
          1.894565400391e+000 1.733316857565e+001 0.000000000000e+000
          0.000000000000e+000 1.538461538461e+001 0.000000000000e+000
          5.816229249735e-001 1.567919247147e+001 0.000000000000e+000
          0.000000000000e+000 1.589743589743e+001 0.000000000000e+000
          9.766405669483e+001 2.000000000000e+001 0.000000000000e+000
          1.010672711393e+002 1.500000000000e+001 0.000000000000e+000
          1.029329279907e+002 2.000000000000e+001 0.000000000000e+000
          9.588503785413e+001 1.500000000000e+001 0.000000000000e+000
          1.039231647117e+002 1.000000000000e+001 0.000000000000e+000
          9.860830811271e+001 1.000000000000e+001 0.000000000000e+000
          1.010672711397e+002 5.000000000000e+000 0.000000000000e+000
          9.766405669557e+001 0.000000000000e+000 0.000000000000e+000
          1.029329279915e+002 0.000000000000e+000 0.000000000000e+000
          9.588503785449e+001 5.000000000000e+000 0.000000000000e+000
          7.892434178002e+001 2.000000000000e+001 0.000000000000e+000
          8.173808356948e+001 1.500000000000e+001 0.000000000000e+000
          8.328058896910e+001 2.000000000000e+001 0.000000000000e+000
          7.679274808893e+001 1.514423393202e+001 0.000000000000e+000
          7.970503892166e+001 1.000000000000e+001 0.000000000000e+000
          8.409930620613e+001 1.000000000000e+001 0.000000000000e+000
          8.173808356980e+001 5.000000000000e+000 0.000000000000e+000
          7.892434178065e+001 0.000000000000e+000 0.000000000000e+000
          8.328058896976e+001 0.000000000000e+000 0.000000000000e+000
          7.679274808925e+001 4.855766067979e+000 0.000000000000e+000
          1.084583939765e+002 2.000000000000e+001 0.000000000000e+000
          1.122011528880e+002 1.500000000000e+001 0.000000000000e+000
          1.142529496098e+002 2.000000000000e+001 0.000000000000e+000
          1.065018792644e+002 1.500000000000e+001 0.000000000000e+000
          1.153419838410e+002 1.000000000000e+001 0.000000000000e+000
          1.094968549120e+002 1.000000000000e+001 0.000000000000e+000
          1.122011528884e+002 5.000000000000e+000 0.000000000000e+000
          1.084583939773e+002 0.000000000000e+000 0.000000000000e+000
          1.142529496106e+002 0.000000000000e+000 0.000000000000e+000
          1.065018792648e+002 5.000000000000e+000 0.000000000000e+000
          1.181779812237e+002 1.500000000000e+001 0.000000000000e+000
          1.203297004775e+002 2.000000000000e+001 0.000000000000e+000
          1.214717707847e+002 1.000000000000e+001 0.000000000000e+000
          1.181779812242e+002 5.000000000000e+000 0.000000000000e+000
          1.203297004784e+002 0.000000000000e+000 0.000000000000e+000
          7.477039199538e+001 2.000000000000e+001 0.000000000000e+000
          7.551483469771e+001 1.000000000000e+001 0.000000000000e+000
          7.296959467356e+001 1.385646386579e+001 0.000000000000e+000
          7.477039199599e+001 0.000000000000e+000 0.000000000000e+000
          7.296959467379e+001 6.143536134207e+000 0.000000000000e+000
          6.918477198508e+001 1.366665532880e+001 0.000000000000e+000
          6.746477463053e+001 1.000000000000e+001 0.000000000000e+000
          7.151921701478e+001 1.000000000000e+001 0.000000000000e+000
          6.918477198529e+001 6.333344671202e+000 0.000000000000e+000
          9.263986346551e+001 2.000000000000e+001 0.000000000000e+000
          9.094345943471e+001 1.500000000000e+001 0.000000000000e+000
          9.354026529380e+001 1.000000000000e+001 0.000000000000e+000
          9.263986346623e+001 0.000000000000e+000 0.000000000000e+000
          9.094345943506e+001 5.000000000000e+000 0.000000000000e+000
          1.244344522558e+002 1.503312574389e+001 0.000000000000e+000
          1.267023895482e+002 2.000000000000e+001 0.000000000000e+000
          1.285510028831e+002 1.020485663255e+001 0.000000000000e+000
          1.244344522563e+002 5.033125743893e+000 0.000000000000e+000
          1.267023895491e+002 0.000000000000e+000 0.000000000000e+000
          8.623136018348e+001 1.500000000000e+001 0.000000000000e+000
          8.784898578901e+001 2.000000000000e+001 0.000000000000e+000
          8.870757443665e+001 1.000000000000e+001 0.000000000000e+000
          8.623136018382e+001 5.000000000000e+000 0.000000000000e+000
          8.784898578969e+001 0.000000000000e+000 0.000000000000e+000
          4.872472752737e+000 0.000000000000e+000 0.000000000000e+000
          4.204479229380e+000 6.412840757122e-001 0.000000000000e+000
          4.157376851380e+000 0.000000000000e+000 0.000000000000e+000
          5.192892237051e+000 7.280355562789e-001 0.000000000000e+000
          1.306630304579e+000 6.212843344151e-001 0.000000000000e+000
          1.050228457081e+000 0.000000000000e+000 0.000000000000e+000
          1.614006202528e+000 0.000000000000e+000 0.000000000000e+000
          1.266763055794e+001 1.554696422866e+001 0.000000000000e+000
          1.263589100638e+001 1.657720348306e+001 0.000000000000e+000
          1.174268578662e+001 1.633018318031e+001 0.000000000000e+000
          6.588835695415e+000 7.505681085529e+000 0.000000000000e+000
          6.456871838389e+000 6.658671683861e+000 0.000000000000e+000
          7.208099140752e+000 7.038822846307e+000 0.000000000000e+000
          4.412623338166e+000 9.138856431549e+000 0.000000000000e+000
          4.024185797397e+000 8.708923235630e+000 0.000000000000e+000
          4.601447447338e+000 8.507292699647e+000 0.000000000000e+000
          5.325995059827e-001 6.308307298123e+000 0.000000000000e+000
          0.000000000000e+000 6.666666666655e+000 0.000000000000e+000
          0.000000000000e+000 6.153846153835e+000 0.000000000000e+000
          3.986461521768e+000 8.146114708182e+000 0.000000000000e+000
          2.411603373059e+000 6.510912162016e+000 0.000000000000e+000
          1.807525763324e+000 6.938080373464e+000 0.000000000000e+000
          1.686779352680e+000 6.178928843543e+000 0.000000000000e+000
          2.510760620997e+000 7.229076682239e+000 0.000000000000e+000
          3.166991983438e+000 6.906135870389e+000 0.000000000000e+000
          3.452788915829e+000 6.276851216781e+000 0.000000000000e+000
          3.340122000742e+000 5.656365440432e+000 0.000000000000e+000
          4.047936562877e+000 5.873561587395e+000 0.000000000000e+000
          1.802463974828e+000 1.292744708026e+001 0.000000000000e+000
          1.383967161336e+000 1.330299552906e+001 0.000000000000e+000
          1.329690820161e+000 1.266495373033e+001 0.000000000000e+000
          2.267922292389e+000 1.431116835808e+001 0.000000000000e+000
          2.854613987538e+000 1.466581611369e+001 0.000000000000e+000
          2.339869278674e+000 1.493776402241e+001 0.000000000000e+000
          4.690956878046e+000 3.115726773737e+000 0.000000000000e+000
          4.014773718330e+000 2.850429494150e+000 0.000000000000e+000
          4.643493383296e+000 2.293565471327e+000 0.000000000000e+000
          5.186083944243e+000 1.661927139510e+000 0.000000000000e+000
          5.452965511439e+000 2.679881546544e+000 0.000000000000e+000
          5.360460104304e+000 3.539902157655e+000 0.000000000000e+000
          6.197986304192e+000 3.115706366113e+000 0.000000000000e+000
          7.929356606585e-001 1.634705420870e+001 0.000000000000e+000
          1.222819867503e+000 1.599517159419e+001 0.000000000000e+000
          1.215723647926e+000 1.546209040954e+001 0.000000000000e+000
          1.770601276021e+000 1.521217632514e+001 0.000000000000e+000
          1.242830150061e+000 1.493919370237e+001 0.000000000000e+000
          1.166444124506e+000 4.610115997312e+000 0.000000000000e+000
          1.851620547934e+000 4.486892013458e+000 0.000000000000e+000
          1.494152702314e+000 5.145235789232e+000 0.000000000000e+000
          1.353088107040e+000 4.090803091641e+000 0.000000000000e+000
          3.802567455935e+000 5.084697985980e+000 0.000000000000e+000
          1.014840185783e+000 5.494768572296e+000 0.000000000000e+000
          8.831064584820e-001 5.109311190608e+000 0.000000000000e+000
          1.727903958959e+000 1.618384478933e+001 0.000000000000e+000
          1.343261525342e+000 1.651800241408e+001 0.000000000000e+000
          3.308120627291e+000 8.593311644828e+000 0.000000000000e+000
[...]
      <PointData Scalars="LIQUID_PRESSURE">
        <DataArray type="Float64" Name="LIQUID_PRESSURE" format="ascii">
          1.033353279835e+006 1.030425499895e+006 1.037170920854e+006 1.142830625072e+006 1.142852886630e+006 1.142937554266e+006 1.143050779208e+006 1.143449101839e+006 1.143477783896e+006 1.143331600601e+006 1.142875357877e+006 1.143447288899e+006 1.142749824806e+006 1.143239947640e+006 1.142831823258e+006 1.143029084939e+006 1.143209866723e+006 1.142773462270e+006 1.143440665424e+006 1.143485592292e+006 1.143386065175e+006 1.143033500570e+006 1.142730853965e+006 1.143022762713e+006 1.091498030060e+006 1.088038475264e+006 1.085804693319e+006 1.093012286332e+006 1.085217273064e+006 1.090809461377e+006 1.088038274237e+006 1.091497883820e+006 1.085804360814e+006 1.093012261223e+006 1.109761041173e+006 1.107164990276e+006 1.105628569468e+006 1.111423748549e+006 1.109016100048e+006 1.104776484625e+006 1.107165393370e+006 1.109761252481e+006 1.105629088015e+006 1.111423315078e+006 1.079585733470e+006 1.075330532126e+006 1.073127729693e+006 1.081835606338e+006 1.071291005048e+006 1.078492812596e+006 1.075330267084e+006 1.079585128087e+006 1.073127607690e+006 1.081835241642e+006 1.068387526030e+006 1.066396589776e+006 1.065558623737e+006 1.068387552425e+006 1.066397052068e+006 1.113144441114e+006 1.112219647122e+006 1.114321769162e+006 1.113140962154e+006 1.114316936509e+006 1.116993529095e+006 1.119029270748e+006 1.115766970662e+006 1.116986729015e+006 1.097251064713e+006 1.098536633131e+006 1.096304210123e+006 1.097251124082e+006 1.098536657150e+006 1.063067850057e+006 1.061157950701e+006 1.059629154675e+006 1.063067667960e+006 1.061159141292e+006 1.103364543480e+006 1.101054965443e+006 1.101080826136e+006 1.103364792309e+006 1.101055124484e+006 1.142939389841e+006 1.143291974312e+006 1.143230708653e+006 1.142686607218e+006 1.142850739566e+006 1.142673031158e+006 1.143201612244e+006 1.142180912330e+006 1.142084526187e+006 1.142208326239e+006 1.143090672092e+006 1.143116974611e+006 1.142626375805e+006 1.143200804263e+006 1.143171044797e+006 1.143076586697e+006 1.142693308225e+006 1.142933405611e+006 1.142912901796e+006 1.143152436088e+006 1.143314639019e+006 1.143318499007e+006 1.143251475717e+006 1.143205549878e+006 1.142772865215e+006 1.142844415379e+006 1.142765264259e+006 1.143207612403e+006 1.143297085216e+006 1.142902158820e+006 1.142851307412e+006 1.143406428091e+006 1.142916468107e+006 1.143357329647e+006 1.142979410872e+006 1.143140004707e+006 1.143035820929e+006 1.142667091671e+006 1.142595271372e+006 1.142576687133e+006 1.142997092372e+006 1.142649234690e+006 1.142710078185e+006 1.142719775025e+006 1.143276102935e+006 1.142747533979e+006 1.142702642268e+006 1.143369934490e+006 1.143028193515e+006 1.142848063536e+006 1.143019548407e+006 1.142639928454e+006 1.142609792929e+006 1.143205006647e+006 1.142806276162e+006 1.142786029018e+006 1.143097016936e+006 1.142775826205e+006 1.142653301699e+006 1.142656636811e+006 1.142799415525e+006 1.142671125439e+006 1.142631129312e+006 1.142921497848e+006 1.142842219586e+006 1.142662360603e+006 1.142922083522e+006 1.143205883443e+006 1.142901605547e+006 1.143026331630e+006 1.142774749915e+006 1.143202127968e+006 1.143481051556e+006 1.143164641511e+006 1.142937846998e+006 1.142730471329e+006 1.142687820632e+006 1.142901641153e+006 1.142995936468e+006 1.142888619058e+006 1.142626187351e+006 1.142597490470e+006 1.143230496244e+006 1.143007637194e+006 1.142891502583e+006 1.143005141445e+006 1.143384623212e+006 1.143063588989e+006 1.143291562740e+006 1.142993454110e+006 1.142669623517e+006 1.143114654894e+006 1.142820389300e+006 1.143039949145e+006 1.142856487643e+006 1.142965274189e+006 1.142626500753e+006 1.143366429045e+006 1.143318669227e+006 1.142866643141e+006 1.143337783785e+006 1.142634076295e+006 1.142683707200e+006 1.142786423572e+006 1.142842787078e+006 1.143270054492e+006 1.143427657578e+006 1.142907700854e+006 1.142933452789e+006 1.143416379186e+006 1.143416894122e+006 1.142596455014e+006 1.143373875437e+006 1.142994188939e+006 1.143250240780e+006 1.142863884863e+006 1.142860258107e+006 1.143231705984e+006 1.143469367797e+006 1.143249104066e+006 1.142753282110e+006 1.142613868233e+006 1.142770640442e+006 1.143147302386e+006 1.142779245352e+006 1.142787583992e+006 1.142892266988e+006 1.142631607900e+006 1.143121307688e+006 1.143452903837e+006 1.120647020736e+006 1.120661118000e+006 1.143150675323e+006 1.143417579791e+006 1.142559728192e+006 1.142742413638e+006 1.142511277758e+006 1.142865599117e+006 1.143019679474e+006 1.143253850834e+006 1.142661841911e+006 1.143050049061e+006 1.142629503752e+006 1.143332934088e+006 1.143256530332e+006 1.142664332794e+006 1.143439976696e+006 1.142695795470e+006 1.142745190196e+006 1.143044949604e+006 1.142863904214e+006 1.142674338718e+006 1.142969434101e+006 1.143337782513e+006 1.143348368410e+006 1.142738225144e+006 1.143490148934e+006 1.143159585093e+006 1.142689055710e+006 1.142714140885e+006 1.142956854657e+006 1.142970566991e+006 1.142956862254e+006 1.142953940273e+006 1.142748457685e+006 1.142877890447e+006 1.142768868761e+006 1.142635411921e+006 1.142669780209e+006 1.142904583682e+006 1.142950627400e+006 1.143033759337e+006 1.143041721500e+006 1.142836886327e+006 1.143010461391e+006 1.142795694617e+006 1.142981920005e+006 1.142905856122e+006 1.143041939322e+006 1.143039354838e+006 1.123690498195e+006 1.121969600675e+006 1.121852731348e+006 1.124760346536e+006 1.121588043473e+006 1.123477284706e+006 1.121844538956e+006 1.123726906280e+006 1.121821423846e+006 1.124783318911e+006 1.121608503258e+006 1.123491847238e+006 1.127716306295e+006 1.126321124829e+006 1.125741713108e+006 1.128800869915e+006 1.125898819822e+006 1.127369730819e+006 1.126317284522e+006 1.127719531145e+006 1.125736873229e+006 1.128806550136e+006 1.125898970781e+006 1.127373080221e+006 1.136295727277e+006 1.135845047844e+006 1.135357573023e+006 1.136693657068e+006 1.135314052385e+006 1.136228953034e+006 1.135845004597e+006 1.136295734765e+006 1.135357449063e+006 1.136693652178e+006 1.135313969885e+006 1.136228942822e+006 1.134360389304e+006 1.134035684406e+006 1.133335248906e+006 1.134933752468e+006 1.133134626713e+006 1.134335097684e+006 1.134035397816e+006 1.134360248097e+006 1.133334897478e+006 1.134933542936e+006 1.133134396240e+006 1.134334900440e+006 1.138481382648e+006 1.138085852457e+006 1.137610485913e+006 1.138622457930e+006 1.138085248941e+006 1.138481045749e+006 1.137610116856e+006 1.138621593242e+006 1.132427655562e+006 1.131176304502e+006 1.131009912639e+006 1.132440029375e+006 1.130947410336e+006 1.132310787655e+006 1.131175824719e+006 1.132427275240e+006 1.131009313488e+006 1.132439753321e+006 1.130946983895e+006 1.132310533506e+006 1.129130526405e+006 1.129559728576e+006 1.129214086270e+006 1.129133687092e+006 1.129560122682e+006 1.129215845759e+006 1.137146899342e+006 1.137614138025e+006 1.136982451086e+006 1.137146855564e+006 1.137613906497e+006 1.136982256540e+006 1.137482376611e+006 1.137481482783e+006 1.128693164748e+006 1.129693309472e+006 1.127761275796e+006 1.130110545773e+006 1.128695160553e+006 1.130110302933e+006 1.135112587530e+006 1.135536722924e+006 1.134633376518e+006 1.135974965730e+006 1.135112509203e+006 1.135974944211e+006 1.126857108823e+006 1.126512069794e+006 1.126858487605e+006 1.138296537592e+006 1.138549026933e+006 1.138551362489e+006 1.138298164897e+006 1.131188424306e+006 1.131448149372e+006 1.131448095070e+006 1.134030733753e+006 1.133554109754e+006 1.134030629228e+006 1.132982283471e+006 1.132503730038e+006 1.132982145182e+006 1.137484383965e+006 1.137484574552e+006 1.136414543771e+006 1.136876603967e+006 1.136876585176e+006 1.125115291051e+006 1.123688331743e+006 1.125114785871e+006 1.137314831563e+006 1.122228809244e+006 1.121309022624e+006 1.122239003866e+006 1.119095341683e+006 1.118863212418e+006 1.119013143815e+006 1.118812398902e+006 1.142497885083e+006 1.142544231610e+006 1.142669352600e+006 1.142709330891e+006 1.142951667592e+006 1.143126371407e+006 1.143436194611e+006 1.142978183108e+006 1.143439235217e+006 1.142971549546e+006 1.142774323713e+006 1.143208424964e+006 1.142751108766e+006 1.142747330020e+006 1.039719553521e+006 1.043603724647e+006 1.037171007445e+006 1.143057184193e+006 1.142614551579e+006 1.142871334412e+006 1.143047716455e+006 1.143091143065e+006 1.143234970059e+006 1.142642271823e+006 1.143145302327e+006 1.143152471643e+006 1.143417394674e+006 1.143261727054e+006 1.142555159279e+006 1.142597483516e+006 1.142680168981e+006 1.143400585839e+006 1.142870168382e+006 1.142955360769e+006 1.142741895602e+006 1.142959907301e+006 1.142591928910e+006 1.142527806014e+006 1.142543643655e+006 1.142853712970e+006 1.142596898036e+006 1.143038623372e+006 1.142772821419e+006 1.142599959783e+006 1.142852370311e+006 1.142758748051e+006 1.142642701870e+006 1.143205044289e+006 1.143073607640e+006 1.142833019628e+006 1.142789908738e+006 1.142804053574e+006 1.142433673294e+006 1.142239676649e+006 1.142908372066e+006 1.142966841778e+006 1.142316995590e+006 1.142205232379e+006 1.142495039555e+006 1.142822859498e+006 1.143026465314e+006 1.142263679826e+006 1.142491534173e+006 1.142125925538e+006 1.143239345242e+006 1.142639648130e+006 1.142912052585e+006 1.141929249254e+006 1.142036035459e+006 1.143208730758e+006 1.142740522817e+006 1.142547266821e+006 1.143010944023e+006 1.142443825656e+006 1.142444851673e+006 1.142752272834e+006 1.142781649170e+006 1.142684604962e+006 1.142346320143e+006 1.142340880218e+006 1.142291271486e+006 1.142011266811e+006 1.142227117687e+006 1.142614702076e+006 1.142307573212e+006 1.142116881627e+006 1.142199825828e+006 1.142264053862e+006 1.143302482110e+006 1.143206908720e+006 1.142314585929e+006 1.142379849120e+006 1.142622498565e+006 1.142785764124e+006 1.142923181090e+006 1.143142819312e+006 1.142629250907e+006 1.142617334688e+006 1.143117134089e+006 1.143438376425e+006 1.142906986325e+006 1.142629345010e+006 1.142799783027e+006 1.142750575463e+006 1.142489168364e+006 1.142533201477e+006 1.142782876923e+006 1.142421476040e+006 1.142694331196e+006 1.142930235075e+006 1.142920755228e+006 1.142607662136e+006 1.142556373482e+006 1.142917273277e+006 1.143016726404e+006 1.142813371150e+006 1.142585751740e+006 1.142345932592e+006 1.142419420345e+006 1.142497567784e+006 1.143299030336e+006 1.142976067973e+006 1.142565389405e+006 1.142705706574e+006 1.143094457531e+006 1.142523466369e+006 1.142495459615e+006 1.142610159377e+006 1.142722570432e+006 1.143155307587e+006 1.142774128101e+006 1.143179931134e+006 1.142973107712e+006 1.142991897914e+006 1.142489281095e+006 1.142852418807e+006 1.143416597958e+006 1.142787741615e+006 1.142806878267e+006 1.143228740477e+006 1.142653158781e+006 1.142582418675e+006 1.142609026916e+006 1.143027956775e+006 1.142788733848e+006 1.143250668093e+006 1.143333051148e+006 1.142378886191e+006 1.142454392930e+006 1.142651522596e+006 1.142390635100e+006 1.142813003819e+006 1.142475769296e+006 1.142015602659e+006 1.142118321790e+006 1.142729832730e+006 1.143282519555e+006 1.143466701700e+006 1.142394689032e+006 1.142256861790e+006 1.142292959633e+006 1.142536239298e+006 1.142482763805e+006 1.142494695741e+006 1.143449240955e+006 1.143374215404e+006 1.143013835119e+006 1.142489513136e+006 1.142552755032e+006 1.143001368521e+006 1.142966434755e+006 1.142939842016e+006 1.142345295268e+006 1.142406133283e+006 1.142248136766e+006 1.143456185454e+006 1.142637555041e+006 1.142915955714e+006 1.143154825184e+006 1.142988066213e+006 1.142284874829e+006 1.142684171267e+006 1.142636485401e+006 1.142659068246e+006 1.142669127625e+006 1.142813323457e+006 1.142479441840e+006 1.142688212576e+006 1.143017971918e+006 1.142600837277e+006 1.143149454630e+006 1.142338318145e+006 1.142520023214e+006 1.143316535500e+006 1.142922690738e+006 1.143394314471e+006 1.142545679365e+006 1.142514907742e+006 1.142943521843e+006 1.142755257162e+006 1.142775258511e+006 1.142236193095e+006 1.142604615697e+006 1.142767496284e+006 1.142702854688e+006 1.142824929284e+006 1.142253409700e+006 1.142255001195e+006 1.142518735867e+006 1.023352274917e+006 1.020434631507e+006 1.015934881064e+006 1.142608243409e+006 1.142738515235e+006 1.143320724275e+006 1.143172820036e+006 1.142854598485e+006 1.143118283743e+006 1.142626575538e+006 1.142827220413e+006 1.143036484790e+006 1.142732272987e+006 1.117006620231e+006 1.117020386418e+006 1.142737069716e+006 1.142955694313e+006 1.143148688896e+006 1.142766342079e+006 1.142617191727e+006 1.142654355885e+006 1.142719850841e+006 1.142668239733e+006 1.142904769473e+006 1.143053235228e+006 1.142466953771e+006 1.142414531319e+006 1.142573233240e+006 1.033145379137e+006 1.030425679710e+006 1.143156857927e+006 1.142628902253e+006 1.142675367447e+006 1.142931695291e+006 1.142528040981e+006 1.142684269530e+006 1.139065422512e+006 1.138965224000e+006 1.139060727351e+006 1.138964455562e+006 1.142821531152e+006 1.142658123773e+006 1.142467666008e+006 1.142637736667e+006 1.138541006507e+006 1.138534324094e+006 1.138258763334e+006 1.138531428882e+006 1.142505416880e+006 1.142179227830e+006 1.142987729643e+006 1.142460589994e+006 1.143014222582e+006 1.142794654237e+006 1.143257254288e+006 1.143222681225e+006 1.142658379716e+006 1.142582039063e+006 1.143431659276e+006 1.142733276787e+006 1.142105193418e+006 1.142458484587e+006 1.027660896522e+006 1.023352347662e+006 1.142873029885e+006 1.143467133573e+006 1.143176671268e+006 1.143235100488e+006 1.142821272895e+006 1.142831695310e+006 1.142490381018e+006 1.115865634724e+006 1.115853449850e+006 1.142241256219e+006 1.142957829332e+006 1.141726700532e+006 1.141997177559e+006 1.141858830119e+006 1.142526753228e+006 1.143242123519e+006 1.143131641454e+006 1.141969979365e+006 1.009655950077e+006 1.008156664750e+006 1.142234612691e+006 1.142954102748e+006 1.142947524304e+006 1.142163428817e+006 1.142954097163e+006 1.142892090789e+006 1.143020300645e+006 1.142298135658e+006 1.139347728063e+006 1.139122028319e+006 1.138968732451e+006 1.139882871655e+006 1.139677355487e+006 1.139104509392e+006 1.139904937086e+006 1.139643042619e+006 1.139951996286e+006 1.140146501429e+006 1.139917357519e+006 1.140166835503e+006 1.140049505815e+006 1.140307337625e+006 1.140389192672e+006 1.140437031217e+006 1.140406423283e+006 1.140450441816e+006 1.140578445719e+006 1.140845141879e+006 1.140808540046e+006 1.140845065468e+006 1.140814338032e+006 1.140953298178e+006 1.141101168122e+006 1.140935295694e+006 1.141099225146e+006 1.140931143162e+006 1.141470134481e+006 1.141447995223e+006 1.141402994485e+006 1.141443796813e+006 1.141395448246e+006 1.139303292622e+006 1.139292064262e+006 1.139627874096e+006 1.139767480795e+006 1.139288420794e+006 1.139301658243e+006 1.139613519710e+006 1.139751721354e+006 1.140193910013e+006 1.140409649559e+006 1.140209788056e+006 1.140415075795e+006 1.140479826625e+006 1.140607342902e+006 1.140483221578e+006 1.140615933565e+006 1.140891828354e+006 1.140994099066e+006 1.140894659131e+006 1.140988637700e+006 1.140483259801e+006 1.140623114099e+006 1.140362925181e+006 1.140948085111e+006 1.140229559223e+006 1.140746227219e+006 1.140618632817e+006 1.140479615290e+006 1.140359139766e+006 1.140943320796e+006 1.140228670992e+006 1.140744679832e+006 1.140905755985e+006 1.141074755110e+006 1.140997568466e+006 1.140898100138e+006 1.141065289902e+006 1.140992013269e+006 1.141446151916e+006 1.141436274371e+006 1.141355472263e+006 1.141439475128e+006 1.141441825175e+006 1.141352232469e+006 1.141348889093e+006 1.141610530936e+006 1.141299608528e+006 1.141369551452e+006 1.141673790576e+006 1.141347685955e+006 1.141813493525e+006 1.141660979058e+006 1.141834977195e+006 1.141704060228e+006 1.141074642532e+006 1.141402520622e+006 1.141080240493e+006 1.141386800404e+006 1.139459838155e+006 1.139089082519e+006 1.139285593748e+006 1.139457267237e+006 1.139089820875e+006 1.139285731397e+006 1.139851272570e+006 1.139821363588e+006 1.139844095511e+006 1.139822671242e+006 1.140514400513e+006 1.140514606435e+006 1.140850431888e+006 1.140845104811e+006 1.140880205032e+006 1.140861880511e+006 1.142298503289e+006 1.142649219114e+006 1.142310814046e+006 1.142745568542e+006 1.141412868810e+006 1.141397017710e+006 1.141812739066e+006 1.141830794636e+006 1.141498279853e+006 1.141803061475e+006 1.141495018458e+006 1.141767663444e+006 1.141461298121e+006 1.141458221290e+006 1.141378380229e+006 1.141451657245e+006 1.141357778004e+006 1.141449012096e+006 1.142579272742e+006 1.141526386933e+006 1.142295957262e+006 1.142669653924e+006 1.142232545802e+006 1.142287692257e+006 1.141790413289e+006 1.141895697446e+006 1.141825298900e+006 1.141806499963e+006 1.141825407531e+006 1.141742313409e+006 1.141862364746e+006 1.141650235117e+006 1.141819846161e+006 1.141854181970e+006 1.141779478522e+006 1.141884935580e+006 1.141822674626e+006 1.141768744301e+006 1.142274848748e+006 1.142955441272e+006 1.142365151989e+006 1.142238240317e+006 1.142806573187e+006 1.142703220240e+006 1.142217628822e+006 1.000000000000e+006 1.000000000000e+006 1.008156610198e+006 1.142780579910e+006 1.143101483261e+006 1.142815366548e+006 1.143021378397e+006 1.142923981169e+006 1.142875472479e+006 1.142946582540e+006 1.142856530791e+006 1.142935225928e+006 1.142601557614e+006 1.142076355451e+006 1.142051692655e+006 1.142881273500e+006 1.142785177047e+006 1.142125772726e+006 1.142246249671e+006 1.143019027292e+006 1.142200939022e+006 1.142045458924e+006 1.142326262279e+006 1.142519657527e+006 1.141853123167e+006 1.142863904703e+006 1.114409388493e+006 1.114417517728e+006 1.143270917009e+006 1.137965670009e+006 1.137966335212e+006 1.141916923639e+006 1.142753346499e+006 1.142951242604e+006 1.141822110513e+006 1.142742664792e+006 1.142590610440e+006 1.143051883633e+006 1.141859964029e+006 1.141754089851e+006 1.141868610380e+006 1.142561125834e+006 1.048153402495e+006 1.045407786140e+006 1.142829035910e+006 1.142387866659e+006 1.049738147825e+006 1.142934079051e+006 1.142692889003e+006 1.142935533824e+006 1.142045919364e+006 1.142691192661e+006 1.015934870459e+006 1.143265421603e+006 1.143212872055e+006 1.142678945974e+006 1.142068585811e+006 1.143181986621e+006 1.139031216314e+006 1.139029891726e+006 1.143258313005e+006 1.142776929832e+006 1.142496989634e+006 1.143021167122e+006 1.143137263490e+006 1.142858097596e+006 1.142843522998e+006 1.142989178503e+006 1.142925271122e+006 1.142684441046e+006 1.142566479953e+006 1.142698366278e+006 1.142943359857e+006 1.142938816722e+006 1.142964412916e+006 1.142634042481e+006 1.142398968013e+006 1.142818733518e+006 1.142011629395e+006 1.053185126622e+006 1.142202791260e+006 1.026885110232e+006 1.141873639354e+006 1.142598311319e+006 1.142148531122e+006 1.142855054312e+006 1.142193546277e+006 1.143028802433e+006 1.141763149864e+006 1.143021080670e+006 1.143071780616e+006 1.142953034527e+006 1.142992162133e+006 1.142981456416e+006 1.142939505381e+006 1.049738490564e+006 1.055588180460e+006 1.043603812290e+006 1.058525610580e+006 1.142875224152e+006 1.055788430031e+006 1.039850916365e+006 1.142634142274e+006 1.142852623604e+006 1.142939485200e+006 1.142973270246e+006 1.055587425466e+006 1.142818676996e+006 1.142809867395e+006 1.138183914715e+006 1.138184736817e+006 1.139606445243e+006 1.139605440641e+006 1.142967934723e+006 1.142847692218e+006 1.139846967656e+006 1.139842298759e+006 1.139674492934e+006 1.139691094532e+006 1.142834628604e+006 1.142908991281e+006 
        </DataArray>
        <DataArray type="Float64" Name="MEAN_PRESSURE" format="ascii">