<?xml version="1.0"?>
<VTKFile type="UnstructuredGrid" version="0.1" byte_order="LittleEndian">
  <UnstructuredGrid>
    <Piece NumberOfPoints="963" NumberOfCells="1758">
      <Points>
        <DataArray type="Float64" NumberOfComponents="3" format="ascii">
          1.600262034769e+002 1.257989505921e+001 0.000000000000e+000
          1.635346199106e+002 2.000000000000e+001 0.000000000000e+000
          1.554515002484e+002 2.000000000000e+001 0.000000000000e+000
          3.459306441575e+000 1.667621982453e+001 0.000000000000e+000
          3.062266634850e+000 1.705413688405e+001 0.000000000000e+000
          2.873380769063e+000 1.650527725632e+001 0.000000000000e+000
          1.514088444034e+000 1.865189448105e+001 0.000000000000e+000
          1.967902677551e+000 1.834103489750e+001 0.000000000000e+000
          2.034564522234e+000 1.890806711991e+001 0.000000000000e+000
          2.478275273162e+000 1.702762299110e+001 0.000000000000e+000
          2.952621433467e+000 1.774357373580e+001 0.000000000000e+000
          2.237893542067e+000 1.782457469610e+001 0.000000000000e+000
          3.313583922780e+000 3.274674552047e+000 0.000000000000e+000
          2.561432712787e+000 3.156040447793e+000 0.000000000000e+000
          3.047531989640e+000 2.714594415171e+000 0.000000000000e+000
          2.750804692284e+000 3.936058190693e+000 0.000000000000e+000
          2.599039179818e+000 2.451529939148e+000 0.000000000000e+000
          3.139686649742e+000 2.186924052088e+000 0.000000000000e+000
          1.919984553221e+000 3.358010194268e+000 0.000000000000e+000
          1.960900304591e+000 2.773319745251e+000 0.000000000000e+000
          1.894565400391e+000 1.733316857565e+001 0.000000000000e+000
          0.000000000000e+000 1.538461538461e+001 0.000000000000e+000
          5.816229249735e-001 1.567919247147e+001 0.000000000000e+000
          0.000000000000e+000 1.589743589743e+001 0.000000000000e+000
          9.766405669483e+001 2.000000000000e+001 0.000000000000e+000
          1.010672711393e+002 1.500000000000e+001 0.000000000000e+000
          1.029329279907e+002 2.000000000000e+001 0.000000000000e+000
          9.588503785413e+001 1.500000000000e+001 0.000000000000e+000
          1.039231647117e+002 1.000000000000e+001 0.000000000000e+000
          9.860830811271e+001 1.000000000000e+001 0.000000000000e+000
          1.010672711397e+002 5.000000000000e+000 0.000000000000e+000
          9.766405669557e+001 0.000000000000e+000 0.000000000000e+000
          1.029329279915e+002 0.000000000000e+000 0.000000000000e+000
          9.588503785449e+001 5.000000000000e+000 0.000000000000e+000
          7.892434178002e+001 2.000000000000e+001 0.000000000000e+000
          8.173808356948e+001 1.500000000000e+001 0.000000000000e+000
          8.328058896910e+001 2.000000000000e+001 0.000000000000e+000
          7.679274808893e+001 1.514423393202e+001 0.000000000000e+000
          7.970503892166e+001 1.000000000000e+001 0.000000000000e+000
          8.409930620613e+001 1.000000000000e+001 0.000000000000e+000
          8.173808356980e+001 5.000000000000e+000 0.000000000000e+000
          7.892434178065e+001 0.000000000000e+000 0.000000000000e+000
          8.328058896976e+001 0.000000000000e+000 0.000000000000e+000
          7.679274808925e+001 4.855766067979e+000 0.000000000000e+000
          1.084583939765e+002 2.000000000000e+001 0.000000000000e+000
          1.122011528880e+002 1.500000000000e+001 0.000000000000e+000
          1.142529496098e+002 2.000000000000e+001 0.000000000000e+000
          1.065018792644e+002 1.500000000000e+001 0.000000000000e+000
          1.153419838410e+002 1.000000000000e+001 0.000000000000e+000
          1.094968549120e+002 1.000000000000e+001 0.000000000000e+000
          1.122011528884e+002 5.000000000000e+000 0.000000000000e+000
          1.084583939773e+002 0.000000000000e+000 0.000000000000e+000
          1.142529496106e+002 0.000000000000e+000 0.000000000000e+000
          1.065018792648e+002 5.000000000000e+000 0.000000000000e+000
          1.181779812237e+002 1.500000000000e+001 0.000000000000e+000
          1.203297004775e+002 2.000000000000e+001 0.000000000000e+000
          1.214717707847e+002 1.000000000000e+001 0.000000000000e+000
          1.181779812242e+002 5.000000000000e+000 0.000000000000e+000
          1.203297004784e+002 0.000000000000e+000 0.000000000000e+000
          7.477039199538e+001 2.000000000000e+001 0.000000000000e+000
          7.551483469771e+001 1.000000000000e+001 0.000000000000e+000
          7.296959467356e+001 1.385646386579e+001 0.000000000000e+000
          7.477039199599e+001 0.000000000000e+000 0.000000000000e+000
          7.296959467379e+001 6.143536134207e+000 0.000000000000e+000
          6.918477198508e+001 1.366665532880e+001 0.000000000000e+000
          6.746477463053e+001 1.000000000000e+001 0.000000000000e+000
          7.151921701478e+001 1.000000000000e+001 0.000000000000e+000
          6.918477198529e+001 6.333344671202e+000 0.000000000000e+000
          9.263986346551e+001 2.000000000000e+001 0.000000000000e+000
          9.094345943471e+001 1.500000000000e+001 0.000000000000e+000
          9.354026529380e+001 1.000000000000e+001 0.000000000000e+000
          9.263986346623e+001 0.000000000000e+000 0.000000000000e+000
          9.094345943506e+001 5.000000000000e+000 0.000000000000e+000
          1.244344522558e+002 1.503312574389e+001 0.000000000000e+000
          1.267023895482e+002 2.000000000000e+001 0.000000000000e+000
          1.285510028831e+002 1.020485663255e+001 0.000000000000e+000
          1.244344522563e+002 5.033125743893e+000 0.000000000000e+000
          1.267023895491e+002 0.000000000000e+000 0.000000000000e+000
          8.623136018348e+001 1.500000000000e+001 0.000000000000e+000
          8.784898578901e+001 2.000000000000e+001 0.000000000000e+000
          8.870757443665e+001 1.000000000000e+001 0.000000000000e+000
          8.623136018382e+001 5.000000000000e+000 0.000000000000e+000
          8.784898578969e+001 0.000000000000e+000 0.000000000000e+000
          4.872472752737e+000 0.000000000000e+000 0.000000000000e+000
          4.204479229380e+000 6.412840757122e-001 0.000000000000e+000
          4.157376851380e+000 0.000000000000e+000 0.000000000000e+000
          5.192892237051e+000 7.280355562789e-001 0.000000000000e+000
          1.306630304579e+000 6.212843344151e-001 0.000000000000e+000
          1.050228457081e+000 0.000000000000e+000 0.000000000000e+000
          1.614006202528e+000 0.000000000000e+000 0.000000000000e+000
          1.266763055794e+001 1.554696422866e+001 0.000000000000e+000
          1.263589100638e+001 1.657720348306e+001 0.000000000000e+000
          1.174268578662e+001 1.633018318031e+001 0.000000000000e+000
          6.588835695415e+000 7.505681085529e+000 0.000000000000e+000
          6.456871838389e+000 6.658671683861e+000 0.000000000000e+000
          7.208099140752e+000 7.038822846307e+000 0.000000000000e+000
          4.412623338166e+000 9.138856431549e+000 0.000000000000e+000
          4.024185797397e+000 8.708923235630e+000 0.000000000000e+000
          4.601447447338e+000 8.507292699647e+000 0.000000000000e+000
          5.325995059827e-001 6.308307298123e+000 0.000000000000e+000
          0.000000000000e+000 6.666666666655e+000 0.000000000000e+000
          0.000000000000e+000 6.153846153835e+000 0.000000000000e+000
          3.986461521768e+000 8.146114708182e+000 0.000000000000e+000
          2.411603373059e+000 6.510912162016e+000 0.000000000000e+000
          1.807525763324e+000 6.938080373464e+000 0.000000000000e+000
          1.686779352680e+000 6.178928843543e+000 0.000000000000e+000
          2.510760620997e+000 7.229076682239e+000 0.000000000000e+000
          3.166991983438e+000 6.906135870389e+000 0.000000000000e+000
          3.452788915829e+000 6.276851216781e+000 0.000000000000e+000
          3.340122000742e+000 5.656365440432e+000 0.000000000000e+000
          4.047936562877e+000 5.873561587395e+000 0.000000000000e+000
          1.802463974828e+000 1.292744708026e+001 0.000000000000e+000
          1.383967161336e+000 1.330299552906e+001 0.000000000000e+000
          1.329690820161e+000 1.266495373033e+001 0.000000000000e+000
          2.267922292389e+000 1.431116835808e+001 0.000000000000e+000
          2.854613987538e+000 1.466581611369e+001 0.000000000000e+000
          2.339869278674e+000 1.493776402241e+001 0.000000000000e+000
          4.690956878046e+000 3.115726773737e+000 0.000000000000e+000
          4.014773718330e+000 2.850429494150e+000 0.000000000000e+000
          4.643493383296e+000 2.293565471327e+000 0.000000000000e+000
          5.186083944243e+000 1.661927139510e+000 0.000000000000e+000
          5.452965511439e+000 2.679881546544e+000 0.000000000000e+000
          5.360460104304e+000 3.539902157655e+000 0.000000000000e+000
          6.197986304192e+000 3.115706366113e+000 0.000000000000e+000
          7.929356606585e-001 1.634705420870e+001 0.000000000000e+000
          1.222819867503e+000 1.599517159419e+001 0.000000000000e+000
          1.215723647926e+000 1.546209040954e+001 0.000000000000e+000
          1.770601276021e+000 1.521217632514e+001 0.000000000000e+000
          1.242830150061e+000 1.493919370237e+001 0.000000000000e+000
          1.166444124506e+000 4.610115997312e+000 0.000000000000e+000
          1.851620547934e+000 4.486892013458e+000 0.000000000000e+000
          1.494152702314e+000 5.145235789232e+000 0.000000000000e+000
          1.353088107040e+000 4.090803091641e+000 0.000000000000e+000
          3.802567455935e+000 5.084697985980e+000 0.000000000000e+000
          1.014840185783e+000 5.494768572296e+000 0.000000000000e+000
          8.831064584820e-001 5.109311190608e+000 0.000000000000e+000
          1.727903958959e+000 1.618384478933e+001 0.000000000000e+000
          1.343261525342e+000 1.651800241408e+001 0.000000000000e+000
          3.308120627291e+000 8.593311644828e+000 0.000000000000e+000
[...]
      <PointData Scalars="LIQUID_PRESSURE">
        <DataArray type="Float64" Name="LIQUID_PRESSURE" format="ascii">
          1.000407227264e+006 1.000740302043e+006 9.996993139288e+005 9.999436817234e+005 1.000095290775e+006 1.000297721233e+006 1.000233494847e+006 1.000847446207e+006 1.000892479382e+006 1.000874490006e+006 1.000194296260e+006 1.000931659092e+006 9.998710563592e+005 1.000712188108e+006 1.000077520794e+006 1.000378301257e+006 1.000703418410e+006 9.999470450200e+005 1.000818832027e+006 1.000888944972e+006 1.000723818111e+006 1.000773586484e+006 1.000363649283e+006 1.000766741354e+006 1.000313088680e+006 1.000314182157e+006 1.000307285612e+006 1.000312177064e+006 1.000306199460e+006 1.000312472691e+006 1.000313994068e+006 1.000312974107e+006 1.000307265272e+006 1.000312202987e+006 1.000340566565e+006 1.000328748305e+006 1.000332527231e+006 1.000342266789e+006 1.000347308863e+006 1.000326159910e+006 1.000328858273e+006 1.000340664539e+006 1.000332506399e+006 1.000341830441e+006 1.000306438327e+006 1.000302235739e+006 1.000301391858e+006 1.000303654747e+006 1.000298664765e+006 1.000305749653e+006 1.000301650793e+006 1.000305977948e+006 1.000298820419e+006 1.000303557246e+006 1.000301913990e+006 1.000296109570e+006 1.000299492495e+006 1.000298001782e+006 1.000292984944e+006 1.000354602090e+006 1.000332302352e+006 1.000331337179e+006 1.000354364306e+006 1.000332052214e+006 1.000313467557e+006 1.000328669139e+006 1.000388213863e+006 1.000313737145e+006 1.000330533225e+006 1.000319577329e+006 1.000327289897e+006 1.000330519666e+006 1.000319552023e+006 1.000302566842e+006 1.000313050991e+006 1.000294636227e+006 1.000308132979e+006 1.000312695349e+006 1.000340394027e+006 1.000317971371e+006 1.000320958447e+006 1.000340377183e+006 1.000317970968e+006 1.000599811880e+006 1.000785003895e+006 1.000656005252e+006 1.000137392586e+006 9.999903493646e+005 9.998932155614e+005 1.000423247215e+006 1.000457737447e+006 1.000247268485e+006 1.000333245372e+006 1.000929772028e+006 1.000887434069e+006 1.000338865866e+006 1.000904460830e+006 1.000599097886e+006 1.000713939026e+006 1.000370404515e+006 1.000835902980e+006 1.000795382019e+006 1.000573336431e+006 1.000842297832e+006 1.000668823311e+006 1.000531726600e+006 1.000696551326e+006 9.998988369735e+005 9.999210450293e+005 9.998771904393e+005 1.000681766807e+006 1.000622703973e+006 1.000037561825e+006 9.999816559619e+005 1.000952839677e+006 1.000301157868e+006 1.000925676090e+006 1.000659456205e+006 1.000609336422e+006 1.000696547879e+006 1.000126384306e+006 9.999490817039e+005 9.999075314310e+005 1.000580486195e+006 1.000152863343e+006 9.998770947585e+005 9.998763164434e+005 1.000580476988e+006 9.998836671065e+005 9.998861128169e+005 1.000628426523e+006 1.000165184014e+006 9.999613341332e+005 1.000242065811e+006 9.999046479686e+005 1.000008718216e+006 1.000471571237e+006 9.999377640555e+005 9.998712240283e+005 1.000524399512e+006 9.998761237308e+005 1.000077869960e+006 1.000128664285e+006 9.999260328856e+005 1.000146915314e+006 9.999699692054e+005 1.000023326738e+006 1.000142297702e+006 1.000115817694e+006 1.000239446836e+006 1.000686181235e+006 1.000682158301e+006 1.000716618939e+006 9.999057306751e+005 1.000447233993e+006 1.000927984998e+006 1.000612988479e+006 1.000595886129e+006 1.000123465976e+006 9.999221530602e+005 1.000325350826e+006 1.000130720889e+006 9.999972146763e+005 9.999964505490e+005 1.000042757231e+006 1.000525884678e+006 1.000696669514e+006 1.000668859427e+006 1.000705467054e+006 1.000914180305e+006 1.000288073767e+006 1.000827293964e+006 1.000153827739e+006 9.999024067277e+005 1.000542707991e+006 9.999399899469e+005 1.000437728297e+006 1.000650205520e+006 1.000728221394e+006 9.998682306985e+005 1.000658968218e+006 1.000609698280e+006 1.000137848235e+006 1.000874265193e+006 1.000110900409e+006 1.000274918909e+006 9.999042029045e+005 9.999607360787e+005 1.000558178226e+006 1.000914780761e+006 1.000376191354e+006 1.000747289557e+006 1.000933457348e+006 1.000925497271e+006 9.999458310283e+005 1.000916688613e+006 1.000150577484e+006 1.000750444683e+006 9.999984861144e+005 9.999467190609e+005 1.000696256414e+006 1.000876742295e+006 1.000496528733e+006 9.998878352603e+005 9.998799995788e+005 9.998751102463e+005 1.000350046097e+006 9.999063121840e+005 9.999548398511e+005 1.000021405169e+006 9.999064833485e+005 1.000303861753e+006 1.000900620602e+006 1.000413023154e+006 1.000409301078e+006 1.000638028525e+006 1.000918312520e+006 9.999052132729e+005 1.000336053023e+006 9.999566699549e+005 1.000828580664e+006 1.000203682871e+006 1.000925245419e+006 9.999084381952e+005 1.000245174858e+006 9.999247830788e+005 1.000663343777e+006 1.000817004602e+006 1.000010515885e+006 1.000854486584e+006 9.998774947711e+005 9.999278824467e+005 1.000475699749e+006 9.999659142486e+005 1.000317859720e+006 1.000183189189e+006 1.000643642066e+006 1.000625526940e+006 9.998568506955e+005 1.000986706610e+006 1.000367385127e+006 1.000386970846e+006 1.000381934135e+006 1.000829738893e+006 1.000773102440e+006 1.000806090096e+006 1.000823373047e+006 1.000502473032e+006 1.000612273583e+006 1.000555526070e+006 9.998965254555e+005 1.000330844519e+006 1.000634757243e+006 1.000662826893e+006 1.000673423541e+006 1.000693283792e+006 1.000616981371e+006 1.000686664023e+006 1.000561573500e+006 1.000688375362e+006 1.000655017671e+006 1.000706700179e+006 1.000682410844e+006 1.000281169712e+006 1.000340684210e+006 1.000450646503e+006 1.000424191963e+006 1.000424554395e+006 1.000298049214e+006 1.000321886955e+006 1.000288889502e+006 1.000479844705e+006 1.000428989746e+006 1.000436084976e+006 1.000302417249e+006 1.000327788697e+006 1.000281711822e+006 1.000404030614e+006 1.000525299806e+006 1.000401826964e+006 1.000308274435e+006 1.000282595714e+006 1.000331545734e+006 1.000394861406e+006 1.000524374636e+006 1.000397653239e+006 1.000309714931e+006 1.000358674911e+006 1.000396507619e+006 1.000385238277e+006 1.000373454281e+006 1.000361318442e+006 1.000366690784e+006 1.000396519053e+006 1.000358681826e+006 1.000385227211e+006 1.000373433089e+006 1.000361323878e+006 1.000366679266e+006 1.000303029643e+006 1.000488939408e+006 1.000326790679e+006 1.000376585230e+006 1.000298892790e+006 1.000349800142e+006 1.000488932929e+006 1.000303067451e+006 1.000326766236e+006 1.000376573445e+006 1.000298893510e+006 1.000349801162e+006 1.000473929179e+006 1.000402589906e+006 1.000274436383e+006 1.000320622479e+006 1.000402542195e+006 1.000473846407e+006 1.000274397842e+006 1.000320254229e+006 1.000446554659e+006 1.000280527496e+006 1.000526634448e+006 1.000325939875e+006 1.000488180958e+006 1.000438031869e+006 1.000280459884e+006 1.000446547243e+006 1.000526790840e+006 1.000325963815e+006 1.000488197418e+006 1.000438033816e+006 1.000286429733e+006 1.000266639831e+006 1.000326972075e+006 1.000285459688e+006 1.000266951974e+006 1.000326679800e+006 1.000389529416e+006 1.000447910007e+006 1.000377630002e+006 1.000389519945e+006 1.000447895672e+006 1.000377610263e+006 1.000282569649e+006 1.000282699173e+006 1.000456209053e+006 1.000370086673e+006 1.000297523681e+006 1.000308197752e+006 1.000455531169e+006 1.000308383173e+006 1.000405835543e+006 1.000352863913e+006 1.000365550990e+006 1.000382860073e+006 1.000405831438e+006 1.000382853730e+006 1.000328347111e+006 1.000399328958e+006 1.000329603815e+006 1.000386353865e+006 1.000489949535e+006 1.000489442781e+006 1.000385988372e+006 1.000456309781e+006 1.000274975899e+006 1.000274963407e+006 1.000403938761e+006 1.000319485239e+006 1.000403947891e+006 1.000418362113e+006 1.000393799091e+006 1.000418350968e+006 1.000401165324e+006 1.000401165492e+006 1.000356467321e+006 1.000419837143e+006 1.000419828168e+006 1.000409528871e+006 1.000327164599e+006 1.000409457087e+006 1.000354198027e+006 1.000328401875e+006 1.000344653888e+006 1.000324427890e+006 1.000365691263e+006 1.000290630203e+006 1.000363897221e+006 1.000286362436e+006 1.000098154402e+006 1.000119709352e+006 1.000428898906e+006 1.000532191866e+006 1.000236785500e+006 1.000555078120e+006 1.000941797277e+006 1.000344603413e+006 1.000877744825e+006 1.000622253223e+006 1.000281504507e+006 1.000438546485e+006 1.000502164064e+006 1.000063558711e+006 9.999406079454e+005 9.999863989511e+005 1.001340841810e+006 1.000845656367e+006 1.000201591361e+006 1.000685707755e+006 1.000798170009e+006 1.000377237070e+006 1.000713763838e+006 9.998455018595e+005 1.000488794471e+006 1.000367515127e+006 1.000926079452e+006 1.000554517861e+006 1.000163895338e+006 1.000163812733e+006 1.000409649494e+006 1.000910057641e+006 1.000109641491e+006 1.000843966931e+006 1.000469835100e+006 1.000757538737e+006 1.000058772277e+006 1.000127286590e+006 1.000135830452e+006 1.000650286126e+006 1.000087143887e+006 1.000797049791e+006 1.000435478481e+006 1.000618028880e+006 1.000783207090e+006 1.000554689738e+006 1.000272234492e+006 1.000576873384e+006 1.000237650885e+006 9.998869594572e+005 1.000450309550e+006 1.000825972130e+006 1.000406890719e+006 9.999989569319e+005 9.999862932492e+005 1.000295163010e+006 1.000354667479e+006 1.000359078269e+006 1.000648728896e+006 1.000643387634e+006 1.000814568462e+006 1.000461262403e+006 1.000592127480e+006 1.000019305121e+006 1.000866113888e+006 9.999508965755e+005 1.000441624621e+006 1.000368167424e+006 1.000449092964e+006 1.000494916202e+006 9.999072748631e+005 1.000062876991e+006 1.000807710029e+006 9.999379851185e+005 1.000018403227e+006 1.000580930595e+006 1.000562870241e+006 1.000052017615e+006 1.000087503605e+006 1.000049484919e+006 1.000336717867e+006 1.000053106020e+006 1.000527215539e+006 1.000620359142e+006 1.000568580370e+006 1.000054995727e+006 1.000249251449e+006 1.000739732411e+006 1.000831184386e+006 1.000501331875e+006 1.000148675197e+006 1.000203318854e+006 9.999699663415e+005 9.998817239217e+005 1.000588746862e+006 1.000836939977e+006 9.998374630142e+005 9.999229204478e+005 1.000580427022e+006 1.000939923950e+006 1.000464858218e+006 9.999763987230e+005 1.000651257364e+006 1.000772125185e+006 1.000451221555e+006 1.000082554985e+006 1.000868618497e+006 1.000339541244e+006 1.000421073563e+006 1.000326869290e+006 1.000337082418e+006 9.999115884718e+005 1.000054248945e+006 1.000558748281e+006 1.000878592375e+006 1.000364261906e+006 9.999390107926e+005 1.000220529920e+006 1.000612209278e+006 1.000615363971e+006 1.000877871722e+006 1.000100265041e+006 9.999823864231e+005 1.000817050810e+006 1.000762638376e+006 1.000769675094e+006 1.000426012563e+006 9.998807270132e+005 1.000464914832e+006 1.000889729779e+006 1.000349063705e+006 1.000874125827e+006 1.000878871499e+006 1.000598718946e+006 9.999528598600e+005 1.000838537318e+006 1.000831643799e+006 9.998664548176e+005 1.000058485559e+006 1.000617305643e+006 1.000382014268e+006 1.000110913495e+006 1.000191348295e+006 1.000848121725e+006 1.000376774550e+006 1.000535261871e+006 1.000870796502e+006 1.000078577869e+006 1.000300941694e+006 1.000583573580e+006 1.000158620729e+006 1.000246960781e+006 1.000698657553e+006 1.000064773625e+006 1.000179023800e+006 1.000085074098e+006 1.000884718329e+006 1.000941978247e+006 9.999564833558e+005 1.000020132031e+006 1.000142018906e+006 1.000668379969e+006 1.000356694402e+006 1.000387782595e+006 1.000911615399e+006 1.000664256534e+006 1.000367681213e+006 1.000497622191e+006 1.000836841970e+006 1.000840821131e+006 1.000547745756e+006 1.000490089899e+006 1.000085672458e+006 1.000326251400e+006 1.000037793729e+006 1.000937664916e+006 9.998347292350e+005 1.000660156938e+006 1.000458710601e+006 1.000147363098e+006 9.999908323119e+005 1.000738393199e+006 9.999742410140e+005 9.998681394786e+005 1.000308479664e+006 1.000775838636e+006 1.000315807161e+006 1.000689129466e+006 1.000470386386e+006 1.000295880685e+006 1.000828459455e+006 1.000104677948e+006 9.998358007367e+005 1.000795654067e+006 1.000233544120e+006 1.000857694687e+006 1.000028002297e+006 1.000768148981e+006 1.000375895807e+006 9.998643499922e+005 1.000789717923e+006 1.000158653069e+006 1.000852128759e+006 9.999754640525e+005 1.000394122916e+006 1.000606715987e+006 9.999477527886e+005 9.999677024752e+005 1.000655145142e+006 1.000787294119e+006 1.000842549598e+006 1.000612496409e+006 1.000175628418e+006 1.000469788647e+006 1.000836017840e+006 1.000619421761e+006 1.000048159506e+006 1.000836891775e+006 1.000216201793e+006 9.999007022115e+005 1.000778256833e+006 1.000285692423e+006 1.000422980114e+006 1.000426337120e+006 1.000469184038e+006 1.000821613616e+006 1.000397684692e+006 1.000249831422e+006 1.000688735974e+006 9.999224691969e+005 1.000634278868e+006 1.000144945638e+006 1.000675196009e+006 1.000230213151e+006 1.000579748980e+006 1.000236353753e+006 1.000187901501e+006 1.001782272791e+006 1.001414208799e+006 1.000605556440e+006 9.998889356002e+005 9.999672535433e+005 1.000516956831e+006 9.999913311017e+005 1.000315475265e+006 1.000357508985e+006 1.000424174831e+006 1.000356232958e+006 1.000420437214e+006 9.999212638904e+005 1.000221331824e+006 9.999453866462e+005 9.998957550232e+005 1.000252860542e+006 1.000411168214e+006 1.000478931305e+006 1.000410935724e+006 1.000783600406e+006 1.000323475418e+006 1.000158880294e+006 1.000433624979e+006 1.000204618339e+006 9.999187252636e+005 1.000727258620e+006 1.000883053144e+006 9.999075280601e+005 9.998396582431e+005 1.000892460266e+006 9.998501154480e+005 1.000126803542e+006 1.000680397944e+006 1.001453774657e+006 1.001110330636e+006 1.000642538593e+006 1.000867805772e+006 1.000503481779e+006 1.000713171325e+006 1.000637885353e+006 1.000596612352e+006 1.000088933253e+006 1.000271130128e+006 1.000270908390e+006 1.000677942575e+006 1.000612922350e+006 1.000113410997e+006 1.000623327616e+006 1.000610162998e+006 1.000694388084e+006 1.000821859244e+006 1.000480686770e+006 9.999904292584e+005 1.000397515225e+006 1.000325843410e+006 1.000734187860e+006 1.000849297519e+006 1.000773772110e+006 1.000175887603e+006 1.000601518141e+006 1.000645866609e+006 1.000688876572e+006 1.000512132742e+006 1.000205176090e+006 1.000382845428e+006 1.000469528999e+006 1.000563309568e+006 1.000437122625e+006 1.000379187596e+006 1.000573972519e+006 1.000381540974e+006 1.000340798393e+006 1.000367107921e+006 1.000225093588e+006 1.000328283519e+006 1.000347990916e+006 1.000486959900e+006 1.000276313511e+006 1.000423774457e+006 1.000267524831e+006 1.000467481094e+006 1.000369667815e+006 1.000481716697e+006 1.000485961103e+006 1.000482071907e+006 1.000477069552e+006 1.000343673318e+006 1.000309604867e+006 1.000189883836e+006 1.000309389482e+006 1.000192055197e+006 1.000620875099e+006 1.000351438753e+006 1.000539923001e+006 1.000356303498e+006 1.000548299660e+006 1.000406550323e+006 1.000335798704e+006 1.000418770322e+006 1.000349214375e+006 1.000346980474e+006 1.000405951652e+006 1.000418079596e+006 1.000321637803e+006 1.000424443206e+006 1.000523302910e+006 1.000420591459e+006 1.000549560612e+006 1.000231309048e+006 1.000291763247e+006 1.000225046745e+006 1.000279247705e+006 1.000515854782e+006 1.000435182311e+006 1.000516423084e+006 1.000436384234e+006 1.000401065035e+006 1.000176883986e+006 1.000614258995e+006 1.000565338435e+006 1.000416575135e+006 1.000328351974e+006 1.000178850697e+006 1.000402298287e+006 1.000609511370e+006 1.000566202610e+006 1.000417352178e+006 1.000329124778e+006 1.000297912965e+006 1.000218485568e+006 1.000408072821e+006 1.000300064306e+006 1.000214163490e+006 1.000412136345e+006 1.000643503903e+006 1.000486551289e+006 1.000557937388e+006 1.000641766295e+006 1.000465046999e+006 1.000559081997e+006 1.000079470892e+006 1.000444183092e+006 1.000096024149e+006 1.000080037511e+006 1.000473089722e+006 1.000112985545e+006 1.000718260729e+006 1.000136648429e+006 1.000689340463e+006 1.000125846441e+006 1.000258528614e+006 1.000584717202e+006 1.000258353221e+006 1.000581192813e+006 1.000316380659e+006 1.000427193851e+006 1.000387578076e+006 1.000318420520e+006 1.000426639255e+006 1.000387909736e+006 1.000275295071e+006 1.000486728798e+006 1.000274919513e+006 1.000485966282e+006 1.000508460946e+006 1.000511239742e+006 1.000448898683e+006 1.000447898365e+006 1.000164713642e+006 1.000157386682e+006 1.000139859042e+006 1.000622187005e+006 1.000090459785e+006 1.000428193734e+006 1.000604773549e+006 1.000578549948e+006 1.000163497689e+006 1.000172597658e+006 1.000184577922e+006 1.000593710084e+006 1.000259007054e+006 1.000595766643e+006 1.000257691152e+006 1.000427025919e+006 1.000134458276e+006 1.000412404149e+006 1.000128001563e+006 1.000116241145e+006 1.000664837397e+006 1.000216897227e+006 9.999275674699e+005 1.000773269724e+006 1.000730647704e+006 1.000631966544e+006 1.000569568912e+006 1.000466663523e+006 1.000613614826e+006 1.000592097494e+006 1.000551347300e+006 1.000163666097e+006 1.000368486167e+006 1.000070601273e+006 1.000432477867e+006 1.000220502700e+006 1.000088142786e+006 1.000228168160e+006 1.000159267253e+006 1.000226804552e+006 1.000754865834e+006 1.000777340955e+006 1.000230576961e+006 1.000623781265e+006 1.000220054335e+006 1.000417854838e+006 1.000639411782e+006 1.000000000000e+006 1.000000000000e+006 1.000345045619e+006 1.000667865028e+006 1.000859376816e+006 1.000150247111e+006 1.000707294513e+006 1.000710499128e+006 9.999742096700e+005 1.000824795470e+006 1.000353187926e+006 1.000771805406e+006 1.000135942891e+006 1.000088319133e+006 1.000077484615e+006 9.999355070320e+005 1.000270756477e+006 1.000148890259e+006 1.000725956112e+006 1.000855415967e+006 1.000373569738e+006 1.000118428891e+006 1.000135850316e+006 1.000741453728e+006 1.000699745714e+006 1.000674135000e+006 1.000346309200e+006 1.000344677631e+006 1.000863389755e+006 1.000346635181e+006 1.000346830483e+006 1.000199529825e+006 1.000303035955e+006 1.000716921785e+006 1.000176444796e+006 1.000058819609e+006 9.999238520652e+005 1.000242284594e+006 1.000493245239e+006 1.000164205684e+006 1.000383442664e+006 1.000081364953e+006 1.000190942389e+006 1.000005353969e+006 1.000809339451e+006 1.000598337687e+006 1.000288713724e+006 1.000777180696e+006 1.000429526841e+006 1.000782961883e+006 1.000506586145e+006 1.000404844657e+006 1.000697214049e+006 1.000802364083e+006 1.000679134070e+006 9.999308853365e+005 1.000241708197e+006 1.000841707295e+006 1.000380015473e+006 1.000379560005e+006 1.000874802690e+006 1.000586417517e+006 1.000414312684e+006 1.000177572257e+006 1.000804319137e+006 1.000694677496e+006 9.999669955304e+005 1.000306691287e+006 1.000366752953e+006 1.000585427944e+006 1.000223495187e+006 1.000157596089e+006 1.000803371897e+006 1.000610229293e+006 1.000798110353e+006 1.000829222998e+006 1.000590919122e+006 9.999228206389e+005 1.000058620485e+006 1.000258537828e+006 1.000717125415e+006 1.000862154139e+006 1.000213755509e+006 9.999154366012e+005 1.000389614728e+006 1.000124562463e+006 1.000646529860e+006 1.000911274532e+006 1.000689961265e+006 1.000688778732e+006 1.000740271813e+006 1.000709561999e+006 1.000721275627e+006 1.000818216767e+006 1.000734602380e+006 1.000177746662e+006 1.000251443330e+006 1.000011095042e+006 1.000295196626e+006 1.000652981726e+006 1.000240529650e+006 9.999019543775e+005 1.000062012550e+006 1.000670977608e+006 1.000678281814e+006 1.000822789280e+006 1.000210514204e+006 1.000218038512e+006 1.000266836916e+006 1.000349487600e+006 1.000349239677e+006 1.000426007329e+006 1.000422399962e+006 1.000789595710e+006 1.000674931708e+006 1.000225051997e+006 1.000230860908e+006 1.000242488454e+006 1.000255032325e+006 1.000661187096e+006 1.000659519714e+006 
        </DataArray>
        <DataArray type="Float64" Name="MEAN_PRESSURE" format="ascii">