<?xml version="1.0"?>
<VTKFile type="UnstructuredGrid" version="0.1" byte_order="LittleEndian">
  <UnstructuredGrid>
    <Piece NumberOfPoints="963" NumberOfCells="1758">
      <Points>
        <DataArray type="Float64" NumberOfComponents="3" format="ascii">
          1.600262034769e+002 1.257989505921e+001 0.000000000000e+000
          1.635346199106e+002 2.000000000000e+001 0.000000000000e+000
          1.554515002484e+002 2.000000000000e+001 0.000000000000e+000
          3.459306441575e+000 1.667621982453e+001 0.000000000000e+000
          3.062266634850e+000 1.705413688405e+001 0.000000000000e+000
          2.873380769063e+000 1.650527725632e+001 0.000000000000e+000
          1.514088444034e+000 1.865189448105e+001 0.000000000000e+000
          1.967902677551e+000 1.834103489750e+001 0.000000000000e+000
          2.034564522234e+000 1.890806711991e+001 0.000000000000e+000
          2.478275273162e+000 1.702762299110e+001 0.000000000000e+000
          2.952621433467e+000 1.774357373580e+001 0.000000000000e+000
          2.237893542067e+000 1.782457469610e+001 0.000000000000e+000
          3.313583922780e+000 3.274674552047e+000 0.000000000000e+000
          2.561432712787e+000 3.156040447793e+000 0.000000000000e+000
          3.047531989640e+000 2.714594415171e+000 0.000000000000e+000
          2.750804692284e+000 3.936058190693e+000 0.000000000000e+000
          2.599039179818e+000 2.451529939148e+000 0.000000000000e+000
          3.139686649742e+000 2.186924052088e+000 0.000000000000e+000
          1.919984553221e+000 3.358010194268e+000 0.000000000000e+000
          1.960900304591e+000 2.773319745251e+000 0.000000000000e+000
          1.894565400391e+000 1.733316857565e+001 0.000000000000e+000
          0.000000000000e+000 1.538461538461e+001 0.000000000000e+000
          5.816229249735e-001 1.567919247147e+001 0.000000000000e+000
          0.000000000000e+000 1.589743589743e+001 0.000000000000e+000
          9.766405669483e+001 2.000000000000e+001 0.000000000000e+000
          1.010672711393e+002 1.500000000000e+001 0.000000000000e+000
          1.029329279907e+002 2.000000000000e+001 0.000000000000e+000
          9.588503785413e+001 1.500000000000e+001 0.000000000000e+000
          1.039231647117e+002 1.000000000000e+001 0.000000000000e+000
          9.860830811271e+001 1.000000000000e+001 0.000000000000e+000
          1.010672711397e+002 5.000000000000e+000 0.000000000000e+000
          9.766405669557e+001 0.000000000000e+000 0.000000000000e+000
          1.029329279915e+002 0.000000000000e+000 0.000000000000e+000
          9.588503785449e+001 5.000000000000e+000 0.000000000000e+000
          7.892434178002e+001 2.000000000000e+001 0.000000000000e+000
          8.173808356948e+001 1.500000000000e+001 0.000000000000e+000
          8.328058896910e+001 2.000000000000e+001 0.000000000000e+000
          7.679274808893e+001 1.514423393202e+001 0.000000000000e+000
          7.970503892166e+001 1.000000000000e+001 0.000000000000e+000
          8.409930620613e+001 1.000000000000e+001 0.000000000000e+000
          8.173808356980e+001 5.000000000000e+000 0.000000000000e+000
          7.892434178065e+001 0.000000000000e+000 0.000000000000e+000
          8.328058896976e+001 0.000000000000e+000 0.000000000000e+000
          7.679274808925e+001 4.855766067979e+000 0.000000000000e+000
          1.084583939765e+002 2.000000000000e+001 0.000000000000e+000
          1.122011528880e+002 1.500000000000e+001 0.000000000000e+000
          1.142529496098e+002 2.000000000000e+001 0.000000000000e+000
          1.065018792644e+002 1.500000000000e+001 0.000000000000e+000
          1.153419838410e+002 1.000000000000e+001 0.000000000000e+000
          1.094968549120e+002 1.000000000000e+001 0.000000000000e+000
          1.122011528884e+002 5.000000000000e+000 0.000000000000e+000
          1.084583939773e+002 0.000000000000e+000 0.000000000000e+000
          1.142529496106e+002 0.000000000000e+000 0.000000000000e+000
          1.065018792648e+002 5.000000000000e+000 0.000000000000e+000
          1.181779812237e+002 1.500000000000e+001 0.000000000000e+000
          1.203297004775e+002 2.000000000000e+001 0.000000000000e+000
          1.214717707847e+002 1.000000000000e+001 0.000000000000e+000
          1.181779812242e+002 5.000000000000e+000 0.000000000000e+000
          1.203297004784e+002 0.000000000000e+000 0.000000000000e+000
          7.477039199538e+001 2.000000000000e+001 0.000000000000e+000
          7.551483469771e+001 1.000000000000e+001 0.000000000000e+000
          7.296959467356e+001 1.385646386579e+001 0.000000000000e+000
          7.477039199599e+001 0.000000000000e+000 0.000000000000e+000
          7.296959467379e+001 6.143536134207e+000 0.000000000000e+000
          6.918477198508e+001 1.366665532880e+001 0.000000000000e+000
          6.746477463053e+001 1.000000000000e+001 0.000000000000e+000
          7.151921701478e+001 1.000000000000e+001 0.000000000000e+000
          6.918477198529e+001 6.333344671202e+000 0.000000000000e+000
          9.263986346551e+001 2.000000000000e+001 0.000000000000e+000
          9.094345943471e+001 1.500000000000e+001 0.000000000000e+000
          9.354026529380e+001 1.000000000000e+001 0.000000000000e+000
          9.263986346623e+001 0.000000000000e+000 0.000000000000e+000
          9.094345943506e+001 5.000000000000e+000 0.000000000000e+000
          1.244344522558e+002 1.503312574389e+001 0.000000000000e+000
          1.267023895482e+002 2.000000000000e+001 0.000000000000e+000
          1.285510028831e+002 1.020485663255e+001 0.000000000000e+000
          1.244344522563e+002 5.033125743893e+000 0.000000000000e+000
          1.267023895491e+002 0.000000000000e+000 0.000000000000e+000
          8.623136018348e+001 1.500000000000e+001 0.000000000000e+000
          8.784898578901e+001 2.000000000000e+001 0.000000000000e+000
          8.870757443665e+001 1.000000000000e+001 0.000000000000e+000
          8.623136018382e+001 5.000000000000e+000 0.000000000000e+000
          8.784898578969e+001 0.000000000000e+000 0.000000000000e+000
          4.872472752737e+000 0.000000000000e+000 0.000000000000e+000
          4.204479229380e+000 6.412840757122e-001 0.000000000000e+000
          4.157376851380e+000 0.000000000000e+000 0.000000000000e+000
          5.192892237051e+000 7.280355562789e-001 0.000000000000e+000
          1.306630304579e+000 6.212843344151e-001 0.000000000000e+000
          1.050228457081e+000 0.000000000000e+000 0.000000000000e+000
          1.614006202528e+000 0.000000000000e+000 0.000000000000e+000
          1.266763055794e+001 1.554696422866e+001 0.000000000000e+000
          1.263589100638e+001 1.657720348306e+001 0.000000000000e+000
          1.174268578662e+001 1.633018318031e+001 0.000000000000e+000
          6.588835695415e+000 7.505681085529e+000 0.000000000000e+000
          6.456871838389e+000 6.658671683861e+000 0.000000000000e+000
          7.208099140752e+000 7.038822846307e+000 0.000000000000e+000
          4.412623338166e+000 9.138856431549e+000 0.000000000000e+000
          4.024185797397e+000 8.708923235630e+000 0.000000000000e+000
          4.601447447338e+000 8.507292699647e+000 0.000000000000e+000
          5.325995059827e-001 6.308307298123e+000 0.000000000000e+000
          0.000000000000e+000 6.666666666655e+000 0.000000000000e+000
          0.000000000000e+000 6.153846153835e+000 0.000000000000e+000
          3.986461521768e+000 8.146114708182e+000 0.000000000000e+000
          2.411603373059e+000 6.510912162016e+000 0.000000000000e+000
          1.807525763324e+000 6.938080373464e+000 0.000000000000e+000
          1.686779352680e+000 6.178928843543e+000 0.000000000000e+000
          2.510760620997e+000 7.229076682239e+000 0.000000000000e+000
          3.166991983438e+000 6.906135870389e+000 0.000000000000e+000
          3.452788915829e+000 6.276851216781e+000 0.000000000000e+000
          3.340122000742e+000 5.656365440432e+000 0.000000000000e+000
          4.047936562877e+000 5.873561587395e+000 0.000000000000e+000
          1.802463974828e+000 1.292744708026e+001 0.000000000000e+000
          1.383967161336e+000 1.330299552906e+001 0.000000000000e+000
          1.329690820161e+000 1.266495373033e+001 0.000000000000e+000
          2.267922292389e+000 1.431116835808e+001 0.000000000000e+000
          2.854613987538e+000 1.466581611369e+001 0.000000000000e+000
          2.339869278674e+000 1.493776402241e+001 0.000000000000e+000
          4.690956878046e+000 3.115726773737e+000 0.000000000000e+000
          4.014773718330e+000 2.850429494150e+000 0.000000000000e+000
          4.643493383296e+000 2.293565471327e+000 0.000000000000e+000
          5.186083944243e+000 1.661927139510e+000 0.000000000000e+000
          5.452965511439e+000 2.679881546544e+000 0.000000000000e+000
          5.360460104304e+000 3.539902157655e+000 0.000000000000e+000
          6.197986304192e+000 3.115706366113e+000 0.000000000000e+000
          7.929356606585e-001 1.634705420870e+001 0.000000000000e+000
          1.222819867503e+000 1.599517159419e+001 0.000000000000e+000
          1.215723647926e+000 1.546209040954e+001 0.000000000000e+000
          1.770601276021e+000 1.521217632514e+001 0.000000000000e+000
          1.242830150061e+000 1.493919370237e+001 0.000000000000e+000
          1.166444124506e+000 4.610115997312e+000 0.000000000000e+000
          1.851620547934e+000 4.486892013458e+000 0.000000000000e+000
          1.494152702314e+000 5.145235789232e+000 0.000000000000e+000
          1.353088107040e+000 4.090803091641e+000 0.000000000000e+000
          3.802567455935e+000 5.084697985980e+000 0.000000000000e+000
          1.014840185783e+000 5.494768572296e+000 0.000000000000e+000
          8.831064584820e-001 5.109311190608e+000 0.000000000000e+000
          1.727903958959e+000 1.618384478933e+001 0.000000000000e+000
          1.343261525342e+000 1.651800241408e+001 0.000000000000e+000
          3.308120627291e+000 8.593311644828e+000 0.000000000000e+000
[...]
      <PointData Scalars="LIQUID_PRESSURE">
        <DataArray type="Float64" Name="LIQUID_PRESSURE" format="ascii">
          9.997315339988e+005 1.003219188608e+006 1.000377928994e+006 1.000368869281e+006 1.000531652636e+006 1.000745432871e+006 1.000685929139e+006 1.001348284896e+006 1.001402510072e+006 1.001370128856e+006 1.000633122739e+006 1.001441756639e+006 1.000288948886e+006 1.001201620802e+006 1.000508046485e+006 1.000842371483e+006 1.001185401111e+006 1.000371603621e+006 1.001318272452e+006 1.001397193070e+006 1.001216160749e+006 1.001264259729e+006 1.000794817560e+006 1.001254320115e+006 1.000572137136e+006 1.000567210058e+006 1.000547493850e+006 1.000568567973e+006 1.000541792687e+006 1.000570090041e+006 1.000566820749e+006 1.000571856150e+006 1.000548091071e+006 1.000568659303e+006 1.000667889081e+006 1.000633921865e+006 1.000638077358e+006 1.000668978337e+006 1.000679149833e+006 1.000620042571e+006 1.000634046339e+006 1.000667792633e+006 1.000638124704e+006 1.000668318170e+006 1.000529229596e+006 1.000501013323e+006 1.000486604500e+006 1.000525855265e+006 1.000478859766e+006 1.000524387235e+006 1.000502056400e+006 1.000527365970e+006 1.000488545538e+006 1.000526015080e+006 1.000485833101e+006 1.000447856368e+006 1.000450230047e+006 1.000480023287e+006 1.000453392508e+006 1.000688599369e+006 1.000653352421e+006 1.000664651489e+006 1.000688910110e+006 1.000666222202e+006 1.000629600523e+006 1.000677604146e+006 1.000758151526e+006 1.000629264947e+006 1.000626165614e+006 1.000597179463e+006 1.000614796097e+006 1.000626167682e+006 1.000597123598e+006 1.000421877649e+006 1.000445966786e+006 1.000390501013e+006 1.000443032087e+006 1.000417508449e+006 1.000656894035e+006 1.000594763210e+006 1.000603823674e+006 1.000656883803e+006 1.000594731178e+006 1.001043250408e+006 1.001277404019e+006 1.001144070175e+006 1.000561676358e+006 1.000420611502e+006 1.000312356147e+006 1.000894071287e+006 1.000907720893e+006 1.000689824748e+006 1.000777363195e+006 1.001416290184e+006 1.001376453985e+006 1.000784687885e+006 1.001376913639e+006 1.001069444216e+006 1.001184477386e+006 1.000800191251e+006 1.001304714920e+006 1.001262954458e+006 1.001036829796e+006 1.001339456696e+006 1.001156606279e+006 1.001010920948e+006 1.001175706080e+006 1.000319648249e+006 1.000354965972e+006 1.000296494967e+006 1.001157532256e+006 1.001105572759e+006 1.000473207238e+006 1.000416553240e+006 1.001460605197e+006 1.000746103473e+006 1.001422949164e+006 1.001119021008e+006 1.001072867212e+006 1.001162555870e+006 1.000550238470e+006 1.000363228218e+006 1.000323087798e+006 1.001051832825e+006 1.000567222578e+006 1.000295567257e+006 1.000296206530e+006 1.001060922305e+006 1.000307072786e+006 1.000303378363e+006 1.001123861132e+006 1.000616412453e+006 1.000393815063e+006 1.000697451134e+006 1.000320801184e+006 1.000419167573e+006 1.000942809491e+006 1.000365543129e+006 1.000297003351e+006 1.000988761162e+006 1.000306785355e+006 1.000493578435e+006 1.000542787360e+006 1.000354491498e+006 1.000564268485e+006 1.000384309699e+006 1.000466538086e+006 1.000578162351e+006 1.000530341231e+006 1.000682229642e+006 1.001173819378e+006 1.001133741913e+006 1.001217937438e+006 1.000331135567e+006 1.000917698476e+006 1.001444054459e+006 1.001081903529e+006 1.001038677816e+006 1.000559355925e+006 1.000351532913e+006 1.000782228932e+006 1.000580650269e+006 1.000435756812e+006 1.000411101410e+006 1.000448587898e+006 1.000998250509e+006 1.001194099264e+006 1.001122537929e+006 1.001203632244e+006 1.001417474039e+006 1.000747733136e+006 1.001317473002e+006 1.000601336961e+006 1.000319350227e+006 1.001011796712e+006 1.000378029221e+006 1.000891877675e+006 1.001095944389e+006 1.001214455011e+006 1.000278920207e+006 1.001153701730e+006 1.001095956670e+006 1.000573230749e+006 1.001370338781e+006 1.000523802701e+006 1.000690328529e+006 1.000335572162e+006 1.000397438298e+006 1.001036784531e+006 1.001419288149e+006 1.000832847866e+006 1.001222140369e+006 1.001438492145e+006 1.001425664233e+006 1.000352750189e+006 1.001416044302e+006 1.000598978046e+006 1.001238512308e+006 1.000427565472e+006 1.000379331918e+006 1.001178584873e+006 1.001385186830e+006 1.000974208576e+006 1.000313147881e+006 1.000294545536e+006 1.000306675765e+006 1.000810609994e+006 1.000333024913e+006 1.000382891788e+006 1.000459275285e+006 1.000318819290e+006 1.000766654964e+006 1.001405985574e+006 1.000821565012e+006 1.000816710116e+006 1.001108485350e+006 1.001420317109e+006 1.000310089049e+006 1.000801386999e+006 1.000385886479e+006 1.001313449331e+006 1.000652271045e+006 1.001408216496e+006 1.000325392797e+006 1.000698818517e+006 1.000343421970e+006 1.001150850770e+006 1.001304663437e+006 1.000427944072e+006 1.001356290806e+006 1.000297502274e+006 1.000350909696e+006 1.000936440233e+006 1.000403056616e+006 1.000738933030e+006 1.000621148534e+006 1.001132683501e+006 1.001115253069e+006 1.000272781416e+006 1.001501558331e+006 1.000833360025e+006 1.000807565458e+006 1.000812588653e+006 1.001303450513e+006 1.001256444416e+006 1.001289489595e+006 1.001304161024e+006 1.000935857130e+006 1.001092363325e+006 1.000988936089e+006 1.000308481312e+006 1.000744265466e+006 1.001125513926e+006 1.001125366434e+006 1.001170836469e+006 1.001191113414e+006 1.001054581535e+006 1.001185825953e+006 1.000991607031e+006 1.001182423445e+006 1.001105696297e+006 1.001211062523e+006 1.001183998088e+006 1.000629974868e+006 1.000702123904e+006 1.000853336117e+006 1.000826749150e+006 1.000822574240e+006 1.000647793295e+006 1.000673731129e+006 1.000644440915e+006 1.000889449186e+006 1.000834051653e+006 1.000838619858e+006 1.000654541709e+006 1.000715146823e+006 1.000632448409e+006 1.000789269420e+006 1.000981450928e+006 1.000799738258e+006 1.000670705935e+006 1.000632610509e+006 1.000719983087e+006 1.000776189156e+006 1.000980785604e+006 1.000794048193e+006 1.000672658724e+006 1.000776570720e+006 1.000824780585e+006 1.000798436832e+006 1.000806159456e+006 1.000773192224e+006 1.000787230476e+006 1.000824785965e+006 1.000776562012e+006 1.000798419166e+006 1.000806129620e+006 1.000773195800e+006 1.000787218555e+006 1.000698023951e+006 1.000939290834e+006 1.000729787259e+006 1.000801547944e+006 1.000686194425e+006 1.000757748216e+006 1.000939286069e+006 1.000698078412e+006 1.000729758771e+006 1.000801533309e+006 1.000686197246e+006 1.000757749583e+006 1.000920042561e+006 1.000833914413e+006 1.000682731490e+006 1.000743697080e+006 1.000833877514e+006 1.000920009183e+006 1.000682678530e+006 1.000743316109e+006 1.000886976988e+006 1.000658993496e+006 1.000982484341e+006 1.000710840522e+006 1.000928439716e+006 1.000870553143e+006 1.000658920326e+006 1.000886967371e+006 1.000982634064e+006 1.000710867629e+006 1.000928447363e+006 1.000870549314e+006 1.000652695015e+006 1.000617802831e+006 1.000716246497e+006 1.000651585832e+006 1.000618063556e+006 1.000715883325e+006 1.000820454698e+006 1.000895131895e+006 1.000800349148e+006 1.000820426523e+006 1.000895160426e+006 1.000800366337e+006 1.000680865381e+006 1.000681068634e+006 1.000874222900e+006 1.000777670231e+006 1.000658355562e+006 1.000689647411e+006 1.000873500944e+006 1.000689818572e+006 1.000838319079e+006 1.000761913980e+006 1.000778939635e+006 1.000811213860e+006 1.000838312713e+006 1.000811204442e+006 1.000701111873e+006 1.000804700260e+006 1.000702761611e+006 1.000824705263e+006 1.000944761527e+006 1.000944489075e+006 1.000824633007e+006 1.000876054432e+006 1.000652996391e+006 1.000652993623e+006 1.000826434045e+006 1.000718751193e+006 1.000826446660e+006 1.000843209805e+006 1.000808954079e+006 1.000843192709e+006 1.000830211833e+006 1.000830170153e+006 1.000772247790e+006 1.000863731974e+006 1.000863736161e+006 1.000818925196e+006 1.000679072933e+006 1.000818170779e+006 1.000776627158e+006 1.000673892890e+006 1.000696081686e+006 1.000668835373e+006 1.000736840456e+006 1.000602962620e+006 1.000731462432e+006 1.000596216748e+006 1.000529241873e+006 1.000563975786e+006 1.000875345951e+006 1.000995105943e+006 1.000692119203e+006 1.001025387036e+006 1.001444159879e+006 1.000794376276e+006 1.001391274863e+006 1.001074182485e+006 1.000719149797e+006 1.000906717225e+006 1.000932956561e+006 1.000502421920e+006 1.000969974342e+006 9.998650886097e+005 1.000089092438e+006 1.001313268018e+006 1.000650988160e+006 1.001153347456e+006 1.001277185801e+006 1.000838120714e+006 1.001202005468e+006 1.000264414843e+006 1.000956443191e+006 1.000830173909e+006 1.001434593557e+006 1.001032003755e+006 1.000594441048e+006 1.000607357667e+006 1.000866624795e+006 1.001414721904e+006 1.000544454590e+006 1.001318827279e+006 1.000898302112e+006 1.001238977308e+006 1.000514712002e+006 1.000557013296e+006 1.000568677037e+006 1.001115176057e+006 1.000529472632e+006 1.001276758104e+006 1.000906247056e+006 1.001076024089e+006 1.001265947656e+006 1.001022725418e+006 1.000691901977e+006 1.001053805325e+006 1.000696428798e+006 1.000317985634e+006 1.000921779786e+006 1.001307143066e+006 1.000844553027e+006 1.000419781851e+006 1.000419776227e+006 1.000749103111e+006 1.000807270827e+006 1.000803204520e+006 1.001105547424e+006 1.001106159572e+006 1.001293315747e+006 1.000926438755e+006 1.001066639636e+006 1.000459733003e+006 1.001345773999e+006 1.000373016401e+006 1.000900609606e+006 1.000810247255e+006 1.000901740674e+006 1.000963600345e+006 1.000330447944e+006 1.000496910657e+006 1.001285507601e+006 1.000366024196e+006 1.000439679982e+006 1.001043624161e+006 1.001038934128e+006 1.000477354033e+006 1.000528527385e+006 1.000490074326e+006 1.000791935164e+006 1.000482004904e+006 1.000988995652e+006 1.001079982670e+006 1.001040568994e+006 1.000492374218e+006 1.000691275654e+006 1.001215454538e+006 1.001322450796e+006 1.000973879053e+006 1.000589607150e+006 1.000647888915e+006 1.000395188199e+006 1.000305120455e+006 1.001044856962e+006 1.001316662948e+006 1.000251320353e+006 1.000335860111e+006 1.001051457847e+006 1.001444312262e+006 1.000923381268e+006 1.000395256458e+006 1.001121305957e+006 1.001252490864e+006 1.000905429089e+006 1.000513492650e+006 1.001340618867e+006 1.000781538681e+006 1.000878825910e+006 1.000792990076e+006 1.000802836903e+006 1.000320738297e+006 1.000488498707e+006 1.001010334747e+006 1.001360672984e+006 1.000807330067e+006 1.000357652036e+006 1.000665701432e+006 1.001068223827e+006 1.001075268574e+006 1.001370566889e+006 1.000543445451e+006 1.000395913546e+006 1.001266833760e+006 1.001237099096e+006 1.001239247996e+006 1.000888884750e+006 1.000295789288e+006 1.000891763167e+006 1.001360757180e+006 1.000788565916e+006 1.001352610321e+006 1.001357147500e+006 1.001066776999e+006 1.000381360296e+006 1.001317288287e+006 1.001332353691e+006 1.000290684867e+006 1.000485808368e+006 1.001091855244e+006 1.000824653225e+006 1.000550751570e+006 1.000631662919e+006 1.001328640041e+006 1.000816237894e+006 1.001009636185e+006 1.001367423199e+006 1.000523708134e+006 1.000747253375e+006 1.001052270466e+006 1.000604157842e+006 1.000691717960e+006 1.001167430061e+006 1.000494290767e+006 1.000614643333e+006 1.000517535354e+006 1.001373400819e+006 1.001453421633e+006 1.000371189227e+006 1.000447685266e+006 1.000572148029e+006 1.001136512682e+006 1.000807391572e+006 1.000841914966e+006 1.001418588590e+006 1.001157976364e+006 1.000825083485e+006 1.000955012164e+006 1.001295902538e+006 1.001323770245e+006 1.001015321332e+006 1.000950152275e+006 1.000534359772e+006 1.000761759079e+006 1.000462527080e+006 1.001446261119e+006 1.000247499192e+006 1.001110316013e+006 1.000924842064e+006 1.000592023905e+006 1.000423275188e+006 1.001199477810e+006 1.000387431242e+006 1.000279398182e+006 1.000727457956e+006 1.001250581081e+006 1.000765672913e+006 1.001150052846e+006 1.000927580648e+006 1.000738287839e+006 1.001306390112e+006 1.000544089295e+006 1.000239695505e+006 1.001288286756e+006 1.000678962378e+006 1.001354301874e+006 1.000466485994e+006 1.001239546899e+006 1.000818024674e+006 1.000284983416e+006 1.001248247627e+006 1.000618724006e+006 1.001322988593e+006 1.000403061861e+006 1.000824435134e+006 1.001047255901e+006 1.000373941818e+006 1.000399699540e+006 1.001120263544e+006 1.001697382811e+006 1.001175792344e+006 1.001003118793e+006 1.000632158462e+006 1.000897862403e+006 1.001329744451e+006 1.001098103699e+006 1.000481301491e+006 1.001307503240e+006 1.000666102311e+006 1.000329787045e+006 1.001235933402e+006 1.000719363718e+006 1.000817035560e+006 1.000822834408e+006 1.000897062276e+006 1.001300802620e+006 1.000866262570e+006 1.000691830749e+006 1.001149082451e+006 1.000342420439e+006 1.001106891764e+006 1.000556177728e+006 1.001148587291e+006 1.000679748722e+006 1.001025285394e+006 1.000690834099e+006 1.000628047621e+006 9.985211558626e+005 9.998361970130e+005 1.001080743782e+006 1.000313815718e+006 1.000401255139e+006 1.000972553106e+006 1.000432955559e+006 1.000741912324e+006 1.000805464604e+006 1.000870987658e+006 1.000803094937e+006 1.000866479149e+006 1.000348021539e+006 1.000637505074e+006 1.000372827298e+006 1.000304772413e+006 1.000664050716e+006 1.000849828253e+006 1.000928759634e+006 1.000849483523e+006 1.001245348707e+006 1.000766983658e+006 1.000609609418e+006 1.000890083154e+006 1.000652938056e+006 1.000339498331e+006 1.001212424584e+006 1.001366114021e+006 1.000326029405e+006 1.000249048594e+006 1.001399735444e+006 1.000277633300e+006 1.000566231205e+006 1.001148540971e+006 1.001244651927e+006 1.000891506842e+006 1.001083040256e+006 1.001379042448e+006 1.000982892096e+006 1.001198060062e+006 1.001114332805e+006 1.001033773532e+006 1.000517470361e+006 1.000569471569e+006 1.000567928720e+006 1.001147333809e+006 1.001080437254e+006 1.000540002449e+006 1.001101766420e+006 1.001083579485e+006 1.001167759817e+006 1.001302601208e+006 1.000942205371e+006 1.000409764497e+006 1.000546305945e+006 1.000484905699e+006 1.001196595102e+006 1.001325984268e+006 1.001259097672e+006 1.000619591354e+006 1.001096023907e+006 1.001091892596e+006 1.001185695098e+006 1.000964080264e+006 1.000625154717e+006 1.000816843390e+006 1.000889951709e+006 1.001026019452e+006 1.000883811510e+006 1.000810360626e+006 1.001039747784e+006 1.000824088517e+006 1.000787133163e+006 1.000807005950e+006 1.000652807161e+006 1.000767930961e+006 1.000793081767e+006 1.000930632006e+006 1.000705430711e+006 1.000873108526e+006 1.000698952073e+006 1.000921026570e+006 1.000804332280e+006 1.000927112557e+006 1.000937940581e+006 1.000927606179e+006 1.000929414410e+006 1.000789446529e+006 1.000748545292e+006 1.000619384755e+006 1.000749215355e+006 1.000622102323e+006 1.001091622498e+006 1.000801897448e+006 1.000994584005e+006 1.000807634219e+006 1.001003410743e+006 1.000843417172e+006 1.000764165138e+006 1.000848503240e+006 1.000780779621e+006 1.000774092650e+006 1.000842939952e+006 1.000846246835e+006 1.000750980446e+006 1.000871324646e+006 1.000984148396e+006 1.000869316987e+006 1.001012574994e+006 1.000663372519e+006 1.000729972989e+006 1.000656573616e+006 1.000718011326e+006 1.000963040336e+006 1.000887869265e+006 1.000963394888e+006 1.000888341482e+006 1.000849223083e+006 1.000605986540e+006 1.001067978649e+006 1.001024600315e+006 1.000861093706e+006 1.000783933734e+006 1.000608138740e+006 1.000850646850e+006 1.001062797792e+006 1.001025378102e+006 1.000862273439e+006 1.000785393762e+006 1.000728056367e+006 1.000658757948e+006 1.000855917195e+006 1.000729095860e+006 1.000652359164e+006 1.000859723520e+006 1.001111749670e+006 1.000937416300e+006 1.001016887250e+006 1.001107383481e+006 1.000915791296e+006 1.001017648948e+006 1.000505898150e+006 1.000890859890e+006 1.000523384008e+006 1.000507201331e+006 1.000927442839e+006 1.000542331433e+006 1.001177489359e+006 1.000559218198e+006 1.001146986205e+006 1.000556871791e+006 1.000692491350e+006 1.001050683499e+006 1.000692749405e+006 1.001045409727e+006 1.000738148186e+006 1.000879172187e+006 1.000830992059e+006 1.000740308367e+006 1.000878797248e+006 1.000831255753e+006 1.000699597839e+006 1.000935687317e+006 1.000699038333e+006 1.000935082307e+006 1.000968832512e+006 1.000972601135e+006 1.000900115049e+006 1.000899054298e+006 1.000584802224e+006 1.000575148530e+006 1.000566938105e+006 1.001085247047e+006 1.000526973965e+006 1.000859154859e+006 1.001058493099e+006 1.001031836887e+006 1.000601458822e+006 1.000612019840e+006 1.000628277005e+006 1.001055093938e+006 1.000694257382e+006 1.001056171646e+006 1.000691793887e+006 1.000878617253e+006 1.000564280751e+006 1.000861882846e+006 1.000555847819e+006 1.000552963947e+006 1.001146345905e+006 1.000659638421e+006 1.000359787165e+006 1.001230816366e+006 1.001205393053e+006 1.001103069234e+006 1.001030659288e+006 1.000922870510e+006 1.001072289053e+006 1.001047459279e+006 1.001005031322e+006 1.000600429720e+006 1.000822224422e+006 1.000488448955e+006 1.000877517551e+006 1.000656674003e+006 1.000522738205e+006 1.000666442745e+006 1.000608334108e+006 1.000652842318e+006 1.001228549786e+006 1.001250360524e+006 1.000672963060e+006 1.001097351876e+006 1.000663549857e+006 1.000846055605e+006 1.001108429372e+006 1.000000000000e+006 1.000000000000e+006 1.000435946136e+006 1.001125782886e+006 1.001349574683e+006 1.000599952284e+006 1.001180708275e+006 1.001187139830e+006 1.000406201061e+006 1.001297872100e+006 1.000798398481e+006 1.001247749101e+006 1.000578984832e+006 1.000521974922e+006 1.000506772892e+006 1.000371030972e+006 1.000707933987e+006 1.000598502694e+006 1.001192637699e+006 1.001331043014e+006 1.000835030136e+006 1.000553057721e+006 1.000575861417e+006 1.001202400273e+006 1.001167274161e+006 1.001137269144e+006 1.000689337535e+006 1.000686976003e+006 1.001354767215e+006 1.000778916353e+006 1.000779167758e+006 1.000658253023e+006 1.000738828338e+006 1.001194814072e+006 1.000613179630e+006 1.000498732702e+006 1.000339594646e+006 1.000696493443e+006 1.000943908622e+006 1.000603282763e+006 1.000838382888e+006 1.000513913704e+006 1.000430243834e+006 9.999685722341e+005 1.001292841607e+006 1.001059162205e+006 1.000526312781e+006 1.001255851210e+006 1.000851105647e+006 1.001266556019e+006 1.000959242836e+006 1.000856914666e+006 1.000788779588e+006 1.001287332497e+006 1.001166691837e+006 1.000365888055e+006 1.000674190788e+006 1.001321867629e+006 1.000819601351e+006 1.000818732690e+006 1.001351722527e+006 1.001022660432e+006 1.000870863718e+006 1.000636132551e+006 1.001271240231e+006 1.001146316831e+006 1.000396732582e+006 1.000755026299e+006 1.000830516551e+006 1.001034878564e+006 1.000667857404e+006 1.000587198616e+006 1.001286413390e+006 1.001064612347e+006 1.001286309557e+006 1.001310651520e+006 1.001054627634e+006 1.000346469010e+006 1.000490129553e+006 1.000425872758e+006 1.001178491606e+006 1.001957582343e+006 1.000657366180e+006 1.000335865967e+006 1.000839912774e+006 1.000558704393e+006 1.001097923160e+006 1.001385243690e+006 1.001150477252e+006 1.001139511758e+006 1.001228653174e+006 1.001194671684e+006 1.001212114732e+006 1.001300004599e+006 1.001206857769e+006 1.000644997813e+006 1.000251874681e+006 9.996762747576e+005 1.000415529045e+006 1.001104478631e+006 1.000356488019e+006 1.001158743339e+006 1.000475746659e+006 1.001115215395e+006 1.001171117357e+006 1.001297112623e+006 1.000418392867e+006 1.000661183090e+006 1.000708819930e+006 1.000775428918e+006 1.000775109283e+006 1.000879672645e+006 1.000875796663e+006 1.001276213153e+006 1.001122552853e+006 1.000643861952e+006 1.000649324778e+006 1.000651769585e+006 1.000666069866e+006 1.001109558140e+006 1.001146335287e+006 
        </DataArray>
        <DataArray type="Float64" Name="MEAN_PRESSURE" format="ascii">