<?xml version="1.0"?>
<VTKFile type="UnstructuredGrid" version="0.1" byte_order="LittleEndian">
  <UnstructuredGrid>
    <Piece NumberOfPoints="963" NumberOfCells="1758">
      <Points>
        <DataArray type="Float64" NumberOfComponents="3" format="ascii">
          1.600262034769e+002 1.257989505921e+001 0.000000000000e+000
          1.635346199106e+002 2.000000000000e+001 0.000000000000e+000
          1.554515002484e+002 2.000000000000e+001 0.000000000000e+000
          3.459306441575e+000 1.667621982453e+001 0.000000000000e+000
          3.062266634850e+000 1.705413688405e+001 0.000000000000e+000
          2.873380769063e+000 1.650527725632e+001 0.000000000000e+000
          1.514088444034e+000 1.865189448105e+001 0.000000000000e+000
          1.967902677551e+000 1.834103489750e+001 0.000000000000e+000
          2.034564522234e+000 1.890806711991e+001 0.000000000000e+000
          2.478275273162e+000 1.702762299110e+001 0.000000000000e+000
          2.952621433467e+000 1.774357373580e+001 0.000000000000e+000
          2.237893542067e+000 1.782457469610e+001 0.000000000000e+000
          3.313583922780e+000 3.274674552047e+000 0.000000000000e+000
          2.561432712787e+000 3.156040447793e+000 0.000000000000e+000
          3.047531989640e+000 2.714594415171e+000 0.000000000000e+000
          2.750804692284e+000 3.936058190693e+000 0.000000000000e+000
          2.599039179818e+000 2.451529939148e+000 0.000000000000e+000
          3.139686649742e+000 2.186924052088e+000 0.000000000000e+000
          1.919984553221e+000 3.358010194268e+000 0.000000000000e+000
          1.960900304591e+000 2.773319745251e+000 0.000000000000e+000
          1.894565400391e+000 1.733316857565e+001 0.000000000000e+000
          0.000000000000e+000 1.538461538461e+001 0.000000000000e+000
          5.816229249735e-001 1.567919247147e+001 0.000000000000e+000
          0.000000000000e+000 1.589743589743e+001 0.000000000000e+000
          9.766405669483e+001 2.000000000000e+001 0.000000000000e+000
          1.010672711393e+002 1.500000000000e+001 0.000000000000e+000
          1.029329279907e+002 2.000000000000e+001 0.000000000000e+000
          9.588503785413e+001 1.500000000000e+001 0.000000000000e+000
          1.039231647117e+002 1.000000000000e+001 0.000000000000e+000
          9.860830811271e+001 1.000000000000e+001 0.000000000000e+000
          1.010672711397e+002 5.000000000000e+000 0.000000000000e+000
          9.766405669557e+001 0.000000000000e+000 0.000000000000e+000
          1.029329279915e+002 0.000000000000e+000 0.000000000000e+000
          9.588503785449e+001 5.000000000000e+000 0.000000000000e+000
          7.892434178002e+001 2.000000000000e+001 0.000000000000e+000
          8.173808356948e+001 1.500000000000e+001 0.000000000000e+000
          8.328058896910e+001 2.000000000000e+001 0.000000000000e+000
          7.679274808893e+001 1.514423393202e+001 0.000000000000e+000
          7.970503892166e+001 1.000000000000e+001 0.000000000000e+000
          8.409930620613e+001 1.000000000000e+001 0.000000000000e+000
          8.173808356980e+001 5.000000000000e+000 0.000000000000e+000
          7.892434178065e+001 0.000000000000e+000 0.000000000000e+000
          8.328058896976e+001 0.000000000000e+000 0.000000000000e+000
          7.679274808925e+001 4.855766067979e+000 0.000000000000e+000
          1.084583939765e+002 2.000000000000e+001 0.000000000000e+000
          1.122011528880e+002 1.500000000000e+001 0.000000000000e+000
          1.142529496098e+002 2.000000000000e+001 0.000000000000e+000
          1.065018792644e+002 1.500000000000e+001 0.000000000000e+000
          1.153419838410e+002 1.000000000000e+001 0.000000000000e+000
          1.094968549120e+002 1.000000000000e+001 0.000000000000e+000
          1.122011528884e+002 5.000000000000e+000 0.000000000000e+000
          1.084583939773e+002 0.000000000000e+000 0.000000000000e+000
          1.142529496106e+002 0.000000000000e+000 0.000000000000e+000
          1.065018792648e+002 5.000000000000e+000 0.000000000000e+000
          1.181779812237e+002 1.500000000000e+001 0.000000000000e+000
          1.203297004775e+002 2.000000000000e+001 0.000000000000e+000
          1.214717707847e+002 1.000000000000e+001 0.000000000000e+000
          1.181779812242e+002 5.000000000000e+000 0.000000000000e+000
          1.203297004784e+002 0.000000000000e+000 0.000000000000e+000
          7.477039199538e+001 2.000000000000e+001 0.000000000000e+000
          7.551483469771e+001 1.000000000000e+001 0.000000000000e+000
          7.296959467356e+001 1.385646386579e+001 0.000000000000e+000
          7.477039199599e+001 0.000000000000e+000 0.000000000000e+000
          7.296959467379e+001 6.143536134207e+000 0.000000000000e+000
          6.918477198508e+001 1.366665532880e+001 0.000000000000e+000
          6.746477463053e+001 1.000000000000e+001 0.000000000000e+000
          7.151921701478e+001 1.000000000000e+001 0.000000000000e+000
          6.918477198529e+001 6.333344671202e+000 0.000000000000e+000
          9.263986346551e+001 2.000000000000e+001 0.000000000000e+000
          9.094345943471e+001 1.500000000000e+001 0.000000000000e+000
          9.354026529380e+001 1.000000000000e+001 0.000000000000e+000
          9.263986346623e+001 0.000000000000e+000 0.000000000000e+000
          9.094345943506e+001 5.000000000000e+000 0.000000000000e+000
          1.244344522558e+002 1.503312574389e+001 0.000000000000e+000
          1.267023895482e+002 2.000000000000e+001 0.000000000000e+000
          1.285510028831e+002 1.020485663255e+001 0.000000000000e+000
          1.244344522563e+002 5.033125743893e+000 0.000000000000e+000
          1.267023895491e+002 0.000000000000e+000 0.000000000000e+000
          8.623136018348e+001 1.500000000000e+001 0.000000000000e+000
          8.784898578901e+001 2.000000000000e+001 0.000000000000e+000
          8.870757443665e+001 1.000000000000e+001 0.000000000000e+000
          8.623136018382e+001 5.000000000000e+000 0.000000000000e+000
          8.784898578969e+001 0.000000000000e+000 0.000000000000e+000
          4.872472752737e+000 0.000000000000e+000 0.000000000000e+000
          4.204479229380e+000 6.412840757122e-001 0.000000000000e+000
          4.157376851380e+000 0.000000000000e+000 0.000000000000e+000
          5.192892237051e+000 7.280355562789e-001 0.000000000000e+000
          1.306630304579e+000 6.212843344151e-001 0.000000000000e+000
          1.050228457081e+000 0.000000000000e+000 0.000000000000e+000
          1.614006202528e+000 0.000000000000e+000 0.000000000000e+000
          1.266763055794e+001 1.554696422866e+001 0.000000000000e+000
          1.263589100638e+001 1.657720348306e+001 0.000000000000e+000
          1.174268578662e+001 1.633018318031e+001 0.000000000000e+000
          6.588835695415e+000 7.505681085529e+000 0.000000000000e+000
          6.456871838389e+000 6.658671683861e+000 0.000000000000e+000
          7.208099140752e+000 7.038822846307e+000 0.000000000000e+000
          4.412623338166e+000 9.138856431549e+000 0.000000000000e+000
          4.024185797397e+000 8.708923235630e+000 0.000000000000e+000
          4.601447447338e+000 8.507292699647e+000 0.000000000000e+000
          5.325995059827e-001 6.308307298123e+000 0.000000000000e+000
          0.000000000000e+000 6.666666666655e+000 0.000000000000e+000
          0.000000000000e+000 6.153846153835e+000 0.000000000000e+000
          3.986461521768e+000 8.146114708182e+000 0.000000000000e+000
          2.411603373059e+000 6.510912162016e+000 0.000000000000e+000
          1.807525763324e+000 6.938080373464e+000 0.000000000000e+000
          1.686779352680e+000 6.178928843543e+000 0.000000000000e+000
          2.510760620997e+000 7.229076682239e+000 0.000000000000e+000
          3.166991983438e+000 6.906135870389e+000 0.000000000000e+000
          3.452788915829e+000 6.276851216781e+000 0.000000000000e+000
          3.340122000742e+000 5.656365440432e+000 0.000000000000e+000
          4.047936562877e+000 5.873561587395e+000 0.000000000000e+000
          1.802463974828e+000 1.292744708026e+001 0.000000000000e+000
          1.383967161336e+000 1.330299552906e+001 0.000000000000e+000
          1.329690820161e+000 1.266495373033e+001 0.000000000000e+000
          2.267922292389e+000 1.431116835808e+001 0.000000000000e+000
          2.854613987538e+000 1.466581611369e+001 0.000000000000e+000
          2.339869278674e+000 1.493776402241e+001 0.000000000000e+000
          4.690956878046e+000 3.115726773737e+000 0.000000000000e+000
          4.014773718330e+000 2.850429494150e+000 0.000000000000e+000
          4.643493383296e+000 2.293565471327e+000 0.000000000000e+000
          5.186083944243e+000 1.661927139510e+000 0.000000000000e+000
          5.452965511439e+000 2.679881546544e+000 0.000000000000e+000
          5.360460104304e+000 3.539902157655e+000 0.000000000000e+000
          6.197986304192e+000 3.115706366113e+000 0.000000000000e+000
          7.929356606585e-001 1.634705420870e+001 0.000000000000e+000
          1.222819867503e+000 1.599517159419e+001 0.000000000000e+000
          1.215723647926e+000 1.546209040954e+001 0.000000000000e+000
          1.770601276021e+000 1.521217632514e+001 0.000000000000e+000
          1.242830150061e+000 1.493919370237e+001 0.000000000000e+000
          1.166444124506e+000 4.610115997312e+000 0.000000000000e+000
          1.851620547934e+000 4.486892013458e+000 0.000000000000e+000
          1.494152702314e+000 5.145235789232e+000 0.000000000000e+000
          1.353088107040e+000 4.090803091641e+000 0.000000000000e+000
          3.802567455935e+000 5.084697985980e+000 0.000000000000e+000
          1.014840185783e+000 5.494768572296e+000 0.000000000000e+000
          8.831064584820e-001 5.109311190608e+000 0.000000000000e+000
          1.727903958959e+000 1.618384478933e+001 0.000000000000e+000
          1.343261525342e+000 1.651800241408e+001 0.000000000000e+000
          3.308120627291e+000 8.593311644828e+000 0.000000000000e+000
[...]
      <PointData Scalars="LIQUID_PRESSURE">
        <DataArray type="Float64" Name="LIQUID_PRESSURE" format="ascii">
          9.999489049608e+005 9.995754717948e+005 1.000769528295e+006 1.000033589991e+006 1.000182327127e+006 1.000382021024e+006 1.000317165046e+006 1.000920732007e+006 1.000963787696e+006 1.000948486899e+006 1.000280553878e+006 1.001002918572e+006 9.999623196567e+005 1.000787660415e+006 1.000165837327e+006 1.000459295753e+006 1.000780290231e+006 1.000036822724e+006 1.000892433799e+006 1.000960754526e+006 1.000799050857e+006 1.000848842001e+006 1.000450545294e+006 1.000842613683e+006 1.000344908645e+006 1.000342085089e+006 1.000334916301e+006 1.000346723160e+006 1.000333319914e+006 1.000343261925e+006 1.000341999618e+006 1.000344876083e+006 1.000334934842e+006 1.000346769172e+006 1.000393700517e+006 1.000380625108e+006 1.000381687969e+006 1.000398611646e+006 1.000398583884e+006 1.000375362556e+006 1.000380724278e+006 1.000393817624e+006 1.000381660803e+006 1.000398228899e+006 1.000331135090e+006 1.000326275777e+006 1.000325363015e+006 1.000329913614e+006 1.000323490868e+006 1.000329817300e+006 1.000325380761e+006 1.000330030650e+006 1.000323440754e+006 1.000329571979e+006 1.000328173889e+006 1.000328327908e+006 1.000327144264e+006 1.000324055046e+006 1.000320813425e+006 1.000412494965e+006 1.000391546358e+006 1.000392550831e+006 1.000412197401e+006 1.000393132104e+006 1.000382143661e+006 1.000395352634e+006 1.000444967520e+006 1.000382462419e+006 1.000365642278e+006 1.000359615222e+006 1.000361857936e+006 1.000365655690e+006 1.000359610765e+006 1.000336357419e+006 1.000338334141e+006 1.000361450715e+006 1.000338044063e+006 1.000355697489e+006 1.000383361036e+006 1.000363132578e+006 1.000364115122e+006 1.000383351057e+006 1.000363149925e+006 1.000683793776e+006 1.000860097518e+006 1.000732267925e+006 1.000226111764e+006 1.000078668568e+006 9.999835227889e+005 1.000503117470e+006 1.000540221736e+006 1.000331977393e+006 1.000417221386e+006 1.001004876813e+006 1.000962265742e+006 1.000422879155e+006 1.000982543117e+006 1.000678826389e+006 1.000792847878e+006 1.000457536337e+006 1.000914892248e+006 1.000874840339e+006 1.000654436689e+006 1.000916049667e+006 1.000745018928e+006 1.000609851636e+006 1.000774096370e+006 9.999894017603e+005 1.000009337802e+006 9.999681067880e+005 1.000760207761e+006 1.000699990153e+006 1.000124776088e+006 1.000069072236e+006 1.001024420065e+006 1.000385947955e+006 1.000999330822e+006 1.000740335305e+006 1.000690299592e+006 1.000776344128e+006 1.000215181104e+006 1.000040353808e+006 9.999987032008e+005 1.000659660924e+006 1.000243275483e+006 9.999677573566e+005 9.999668055782e+005 1.000658257467e+006 9.999734884326e+005 9.999768511820e+005 1.000703451983e+006 1.000249377162e+006 1.000049453588e+006 1.000325594249e+006 9.999954519792e+005 1.000100204937e+006 1.000551328204e+006 1.000026722552e+006 9.999611497332e+005 1.000605202001e+006 9.999649373134e+005 1.000168295326e+006 1.000219186340e+006 1.000014708384e+006 1.000236771065e+006 1.000060862795e+006 1.000109291821e+006 1.000229248287e+006 1.000206291779e+006 1.000324852248e+006 1.000762038995e+006 1.000764858333e+006 1.000789769606e+006 9.999950827987e+005 1.000527280558e+006 1.000998200484e+006 1.000692905578e+006 1.000679976846e+006 1.000210136054e+006 1.000010924609e+006 1.000407879537e+006 1.000215159610e+006 1.000084034306e+006 1.000087134135e+006 1.000134992400e+006 1.000605310318e+006 1.000771004650e+006 1.000751207432e+006 1.000779504332e+006 1.000986736393e+006 1.000370637217e+006 1.000902625493e+006 1.000238711092e+006 9.999931873707e+005 1.000622474611e+006 1.000027137066e+006 1.000520838844e+006 1.000734026248e+006 1.000804503944e+006 9.999602539589e+005 1.000733827417e+006 1.000686252199e+006 1.000224853463e+006 1.000948023105e+006 1.000201585741e+006 1.000364903503e+006 9.999927516196e+005 1.000048232662e+006 1.000636449609e+006 1.000987071837e+006 1.000458664399e+006 1.000824849857e+006 1.001005646737e+006 1.000998636137e+006 1.000038277300e+006 1.000989928853e+006 1.000235125920e+006 1.000826085483e+006 1.000087608259e+006 1.000035299076e+006 1.000773462839e+006 1.000948524652e+006 1.000575035785e+006 9.999772035681e+005 9.999710610745e+005 9.999633567075e+005 1.000432055454e+006 9.999958153687e+005 1.000043784919e+006 1.000108240527e+006 9.999980142004e+005 1.000385502757e+006 1.000972892091e+006 1.000471599390e+006 1.000468132959e+006 1.000717244867e+006 1.000990993725e+006 9.999981209470e+005 1.000416973414e+006 1.000045007064e+006 1.000904095005e+006 1.000288609296e+006 1.001001421491e+006 9.999992764653e+005 1.000328703897e+006 1.000015109687e+006 1.000739705145e+006 1.000892632860e+006 1.000100633267e+006 1.000927703448e+006 9.999678873662e+005 1.000017697374e+006 1.000557205400e+006 1.000053455419e+006 1.000406802856e+006 1.000270100098e+006 1.000719692766e+006 1.000701486374e+006 9.999485858829e+005 1.001056948519e+006 1.000448215734e+006 1.000475851635e+006 1.000468858048e+006 1.000908107134e+006 1.000849658339e+006 1.000882532481e+006 1.000900022516e+006 1.000588884942e+006 1.000689592114e+006 1.000641766430e+006 9.999881183582e+005 1.000421089434e+006 1.000709925906e+006 1.000743613704e+006 1.000747583157e+006 1.000767350640e+006 1.000702252848e+006 1.000760560051e+006 1.000648399472e+006 1.000763167512e+006 1.000737921022e+006 1.000779366779e+006 1.000755859139e+006 1.000356402975e+006 1.000410206473e+006 1.000511664259e+006 1.000490221441e+006 1.000486247683e+006 1.000372784838e+006 1.000393053127e+006 1.000363013968e+006 1.000539294258e+006 1.000494632456e+006 1.000496897463e+006 1.000376731611e+006 1.000402550876e+006 1.000360771985e+006 1.000474641868e+006 1.000587511354e+006 1.000470873100e+006 1.000386673953e+006 1.000361727271e+006 1.000406055351e+006 1.000466238477e+006 1.000586552454e+006 1.000466987723e+006 1.000388005418e+006 1.000439893129e+006 1.000474917331e+006 1.000465697238e+006 1.000452488641e+006 1.000442311650e+006 1.000447325085e+006 1.000474929321e+006 1.000439901984e+006 1.000465686685e+006 1.000452470119e+006 1.000442317375e+006 1.000447314803e+006 1.000386211312e+006 1.000560052088e+006 1.000406910019e+006 1.000454457023e+006 1.000381614850e+006 1.000430167803e+006 1.000560045498e+006 1.000386246113e+006 1.000406886484e+006 1.000454445690e+006 1.000381614972e+006 1.000430168767e+006 1.000552072010e+006 1.000483393220e+006 1.000359675712e+006 1.000404289266e+006 1.000483346922e+006 1.000551988227e+006 1.000359643905e+006 1.000403927117e+006 1.000517688704e+006 1.000362264410e+006 1.000592111037e+006 1.000408018389e+006 1.000556799187e+006 1.000510349987e+006 1.000362195413e+006 1.000517680368e+006 1.000592265682e+006 1.000408041045e+006 1.000556815103e+006 1.000510352006e+006 1.000367199583e+006 1.000350853317e+006 1.000403435137e+006 1.000366277741e+006 1.000351179501e+006 1.000403168731e+006 1.000469453295e+006 1.000524815329e+006 1.000458652231e+006 1.000469448598e+006 1.000524795252e+006 1.000458627285e+006 1.000369374453e+006 1.000369480929e+006 1.000525405757e+006 1.000443615657e+006 1.000376925172e+006 1.000387657550e+006 1.000524749043e+006 1.000387844998e+006 1.000482395434e+006 1.000434701480e+006 1.000445235404e+006 1.000461620828e+006 1.000482391771e+006 1.000461615585e+006 1.000404066335e+006 1.000468289758e+006 1.000405232247e+006 1.000466343603e+006 1.000566664629e+006 1.000566134296e+006 1.000465934034e+006 1.000529020331e+006 1.000357271235e+006 1.000357256019e+006 1.000480822452e+006 1.000400557761e+006 1.000480830873e+006 1.000493225656e+006 1.000469798840e+006 1.000493215448e+006 1.000481618445e+006 1.000481629386e+006 1.000438328187e+006 1.000496625411e+006 1.000496615235e+006 1.000475514774e+006 1.000401405050e+006 1.000475542564e+006 1.000436069063e+006 1.000401165942e+006 1.000414472734e+006 1.000397447948e+006 1.000428587645e+006 1.000363709117e+006 1.000427267357e+006 1.000359838754e+006 1.000185574966e+006 1.000205174749e+006 1.000512323380e+006 1.000612819732e+006 1.000319853158e+006 1.000634659822e+006 1.001014572113e+006 1.000428397504e+006 1.000948340440e+006 1.000704560886e+006 1.000367350732e+006 1.000518806079e+006 1.000588851479e+006 1.000150209106e+006 1.002132272711e+006 9.998473481068e+005 1.000112286764e+006 1.000924304783e+006 1.000285663763e+006 1.000764664860e+006 1.000875081517e+006 1.000459510544e+006 1.000789560183e+006 9.999359878524e+005 1.000569403595e+006 1.000449155268e+006 1.000997603542e+006 1.000632877393e+006 1.000251210978e+006 1.000248825634e+006 1.000491774945e+006 1.000982469242e+006 1.000196860913e+006 1.000921869008e+006 1.000557077667e+006 1.000834399775e+006 1.000142178579e+006 1.000214865738e+006 1.000222715263e+006 1.000729776628e+006 1.000172799585e+006 1.000873839402e+006 1.000515129129e+006 1.000698681863e+006 1.000859200632e+006 1.000634388273e+006 1.000361516751e+006 1.000655415576e+006 1.000320552422e+006 9.999758678426e+005 1.000529759460e+006 1.000902152907e+006 1.000492097619e+006 1.000088757125e+006 1.000074406064e+006 1.000378420118e+006 1.000437205565e+006 1.000443151149e+006 1.000729694926e+006 1.000723448935e+006 1.000891566763e+006 1.000540992953e+006 1.000669788461e+006 1.000105018062e+006 1.000943217119e+006 1.000040817425e+006 1.000523466048e+006 1.000452178694e+006 1.000530867118e+006 1.000575004241e+006 9.999970523576e+005 1.000149926085e+006 1.000884790531e+006 1.000026736621e+006 1.000107872222e+006 1.000661435776e+006 1.000640985454e+006 1.000141087580e+006 1.000173377270e+006 1.000135373157e+006 1.000418554265e+006 1.000140839060e+006 1.000607430983e+006 1.000700755746e+006 1.000646754578e+006 1.000141251363e+006 1.000333958693e+006 1.000816509247e+006 1.000906253855e+006 1.000580922083e+006 1.000234294104e+006 1.000288086322e+006 1.000059085815e+006 9.999718260533e+005 1.000670414420e+006 1.000913793367e+006 9.999290135412e+005 1.000014226782e+006 1.000659791945e+006 1.001012318035e+006 1.000546754681e+006 1.000066854165e+006 1.000730131015e+006 1.000848528497e+006 1.000533198645e+006 1.000170417774e+006 1.000946123730e+006 1.000424063976e+006 1.000502993641e+006 1.000407662654e+006 1.000417873203e+006 1.000003914053e+006 1.000141446677e+006 1.000641300886e+006 1.000954417062e+006 1.000448940730e+006 1.000029426921e+006 1.000305185201e+006 1.000693235374e+006 1.000695992272e+006 1.000952434937e+006 1.000186338679e+006 1.000073532233e+006 1.000898731476e+006 1.000840562261e+006 1.000847858331e+006 1.000506808018e+006 9.999717518625e+005 1.000552456404e+006 1.000968168821e+006 1.000434225127e+006 1.000951371083e+006 1.000955361993e+006 1.000678398979e+006 1.000041642426e+006 1.000915169885e+006 1.000905025124e+006 9.999565780018e+005 1.000147311102e+006 1.000696160518e+006 1.000466294580e+006 1.000196894785e+006 1.000276731467e+006 1.000924194513e+006 1.000462023541e+006 1.000614303064e+006 1.000944702084e+006 1.000163553981e+006 1.000384760993e+006 1.000662463910e+006 1.000243298433e+006 1.000332067878e+006 1.000777087738e+006 1.000152242070e+006 1.000265106746e+006 1.000172860356e+006 1.000959919828e+006 1.001012957110e+006 1.000047422798e+006 1.000108367323e+006 1.000229611326e+006 1.000747286333e+006 1.000439610288e+006 1.000470008658e+006 1.000983562925e+006 1.000739408600e+006 1.000449910093e+006 1.000579069023e+006 1.000916373243e+006 1.000916441822e+006 1.000627723600e+006 1.000571537122e+006 1.000170415955e+006 1.000411996221e+006 1.000126535588e+006 1.001009126846e+006 9.999264975933e+005 1.000743231427e+006 1.000539653174e+006 1.000233091806e+006 1.000078631875e+006 1.000818326555e+006 1.000065613082e+006 9.999601103418e+005 1.000397764812e+006 1.000853404285e+006 1.000399123962e+006 1.000769125023e+006 1.000552612323e+006 1.000380694538e+006 1.000905595303e+006 1.000190628211e+006 9.999293725770e+005 1.000870548281e+006 1.000318548672e+006 1.000931672238e+006 1.000114695380e+006 1.000845940364e+006 1.000461177568e+006 9.999550654679e+005 1.000870110919e+006 1.000240296269e+006 1.000929664559e+006 1.000064467025e+006 1.000481140143e+006 1.000691553128e+006 1.000036551946e+006 1.000055640678e+006 1.000734619937e+006 9.992016922736e+005 9.990223715211e+005 9.993153041874e+005 1.000258649365e+006 1.000557138260e+006 1.000910398259e+006 1.000697108313e+006 1.000136084298e+006 1.000915390001e+006 1.000300192659e+006 9.999899613495e+005 1.000859245640e+006 1.000372211151e+006 1.000477518181e+006 1.000480480532e+006 1.000556561871e+006 1.000898580098e+006 1.000477960718e+006 1.000334994957e+006 1.000768743736e+006 1.000012864808e+006 1.000712594079e+006 1.000236037792e+006 1.000752994890e+006 1.000314508894e+006 1.000662820700e+006 1.000319362607e+006 1.000273395916e+006 9.941488723430e+005 9.969184547337e+005 1.000684240965e+006 9.999785282086e+005 1.000054790752e+006 1.000599117090e+006 1.000077608733e+006 1.000403417322e+006 1.000436823089e+006 1.000503272939e+006 1.000435777331e+006 1.000499734330e+006 1.000010914812e+006 1.000311301181e+006 1.000034221637e+006 9.999880858265e+005 1.000338736368e+006 1.000491249151e+006 1.000556224364e+006 1.000491020459e+006 1.000863047497e+006 1.000407437055e+006 1.000242956880e+006 1.000515404154e+006 1.000289633265e+006 1.000009327881e+006 1.000803773917e+006 1.000959204656e+006 9.999979316394e+005 9.999319307618e+005 1.000964428834e+006 9.999391114672e+005 1.000212434811e+006 1.000759243038e+006 9.983031818577e+005 9.984669664468e+005 1.000727385656e+006 1.000939062006e+006 1.000581888574e+006 1.000789602726e+006 1.000715767246e+006 1.000682084075e+006 1.000176990590e+006 1.000341662621e+006 1.000341603097e+006 1.000756065764e+006 1.000692543412e+006 1.000200964517e+006 1.000699568141e+006 1.000687164591e+006 1.000772225993e+006 1.000898926665e+006 1.000562421681e+006 1.000080165849e+006 9.995291024964e+005 9.996234713472e+005 1.000813464187e+006 1.000926868761e+006 1.000849615166e+006 1.000260479255e+006 1.000676175052e+006 1.000729581173e+006 1.000763179928e+006 1.000594025473e+006 1.000290622777e+006 1.000464577313e+006 1.000553429324e+006 1.000639928997e+006 1.000516998520e+006 1.000461457453e+006 1.000650033195e+006 1.000462385086e+006 1.000421555220e+006 1.000449379070e+006 1.000309787824e+006 1.000410769226e+006 1.000429104412e+006 1.000568296469e+006 1.000361156401e+006 1.000504357514e+006 1.000351909414e+006 1.000547094743e+006 1.000453245087e+006 1.000563249333e+006 1.000566221275e+006 1.000563601386e+006 1.000557295195e+006 1.000425678019e+006 1.000393354157e+006 1.000275567848e+006 1.000392957541e+006 1.000277646381e+006 1.000697900632e+006 1.000433342996e+006 1.000620348159e+006 1.000437916398e+006 1.000628533624e+006 1.000488108535e+006 1.000419181365e+006 1.000501902192e+006 1.000432420532e+006 1.000430564413e+006 1.000487454943e+006 1.000501492006e+006 1.000405363005e+006 1.000504964927e+006 1.000601238738e+006 1.000500775348e+006 1.000626984783e+006 1.000315914505e+006 1.000375125952e+006 1.000309798761e+006 1.000362557293e+006 1.000597215440e+006 1.000515645981e+006 1.000597848880e+006 1.000517000245e+006 1.000481851060e+006 1.000262439299e+006 1.000693145039e+006 1.000644305581e+006 1.000497699927e+006 1.000408381524e+006 1.000264341737e+006 1.000483056936e+006 1.000688516464e+006 1.000645140129e+006 1.000498406261e+006 1.000409004970e+006 1.000383299794e+006 1.000302258506e+006 1.000489700047e+006 1.000385617314e+006 1.000298326307e+006 1.000493777104e+006 1.000720867804e+006 1.000567593481e+006 1.000637273194e+006 1.000719686425e+006 1.000546248981e+006 1.000638480161e+006 1.000166435085e+006 1.000526592060e+006 1.000182916627e+006 1.000167017515e+006 1.000554051117e+006 1.000199442683e+006 1.000797552828e+006 1.000224700881e+006 1.000769123986e+006 1.000212488138e+006 1.000343252026e+006 1.000662588719e+006 1.000343023124e+006 1.000659398720e+006 1.000401186882e+006 1.000505536852e+006 1.000467962469e+006 1.000403172240e+006 1.000504955739e+006 1.000468309985e+006 1.000360223830e+006 1.000566076717e+006 1.000359862439e+006 1.000565301478e+006 1.000586734625e+006 1.000589290582e+006 1.000529636511e+006 1.000528610680e+006 1.000252349444e+006 1.000245473632e+006 1.000227757950e+006 1.000702130382e+006 1.000176773654e+006 1.000515145333e+006 1.000685114330e+006 1.000658996793e+006 1.000248860327e+006 1.000257538413e+006 1.000268206871e+006 1.000673056431e+006 1.000344197237e+006 1.000675202948e+006 1.000342958624e+006 1.000508289302e+006 1.000220851155e+006 1.000494148357e+006 1.000214731523e+006 1.000201415306e+006 1.000741472628e+006 1.000300685924e+006 1.000015492835e+006 1.000853714500e+006 1.000807485490e+006 1.000709945898e+006 1.000649000783e+006 1.000547466918e+006 1.000693530302e+006 1.000672706902e+006 1.000632429441e+006 1.000249178381e+006 1.000450023681e+006 1.000159892970e+006 1.000515504346e+006 1.000305918335e+006 1.000174318627e+006 1.000313239617e+006 1.000242658063e+006 1.000314208949e+006 1.000831891082e+006 1.000855173142e+006 1.000315757989e+006 1.000701295553e+006 1.000305312338e+006 1.000505216760e+006 1.000717420945e+006 1.000000000000e+006 1.000000000000e+006 9.995788727367e+005 1.000748593364e+006 1.000934060353e+006 1.000234610579e+006 1.000785522236e+006 1.000787929037e+006 1.000062842040e+006 1.000903025949e+006 1.000437734213e+006 1.000849568336e+006 1.000221152060e+006 1.000175090473e+006 1.000165056921e+006 1.000023664074e+006 1.000356942385e+006 1.000232656856e+006 1.000804397928e+006 1.000932612697e+006 1.000454208800e+006 1.000205010157e+006 1.000221519885e+006 1.000821170304e+006 1.000777558745e+006 1.000753953008e+006 1.000405750536e+006 1.000404270911e+006 1.000938234946e+006 1.000427421093e+006 1.000427603302e+006 1.000281110121e+006 1.000389194766e+006 1.000794181284e+006 1.000261800159e+006 1.000145333467e+006 1.000014918110e+006 1.000325670556e+006 1.000575004124e+006 1.000249379633e+006 1.000464978752e+006 1.000168813068e+006 1.000046439964e+006 1.000541347186e+006 1.000885167557e+006 1.000678626313e+006 1.000194033729e+006 1.000854546520e+006 1.000518125725e+006 1.000859138423e+006 1.000588103271e+006 1.000487579232e+006 9.991199365276e+005 1.000878978773e+006 1.000755372597e+006 1.000018656498e+006 1.000328105326e+006 1.000918477392e+006 1.000460844324e+006 1.000460464880e+006 1.000952328957e+006 1.000672072984e+006 1.000496205245e+006 1.000260793814e+006 1.000883720704e+006 1.000777327120e+006 1.000056048328e+006 1.000391039057e+006 1.000447956258e+006 1.000668296107e+006 1.000308235264e+006 1.000245528926e+006 1.000879705994e+006 1.000692261387e+006 1.000873687601e+006 1.000905207190e+006 1.000670684355e+006 1.000013252745e+006 1.000145871106e+006 1.000322257478e+006 1.000796747757e+006 9.991437547693e+005 1.000297928281e+006 1.000005803265e+006 1.000472370070e+006 1.000211905924e+006 1.000727904627e+006 1.000988576889e+006 1.000768897272e+006 1.000771450031e+006 1.000815609050e+006 1.000786045424e+006 1.000796679761e+006 1.000894858587e+006 1.000813219627e+006 1.000169780110e+006 1.000443061544e+006 1.000778336808e+006 1.000363534432e+006 1.000735651042e+006 1.000348643172e+006 9.980703409818e+005 1.000152795794e+006 1.000755123234e+006 1.000752578051e+006 1.000900159961e+006 1.000320928898e+006 1.000303303347e+006 1.000352086589e+006 1.000431722276e+006 1.000431497074e+006 1.000504511617e+006 1.000500983267e+006 1.000865381313e+006 1.000758573008e+006 1.000311339553e+006 1.000317158570e+006 1.000330277560e+006 1.000342490232e+006 1.000744475290e+006 1.000735215636e+006 
        </DataArray>
        <DataArray type="Float64" Name="MEAN_PRESSURE" format="ascii">