<?xml version="1.0"?>
<VTKFile type="UnstructuredGrid" version="0.1" byte_order="LittleEndian">
  <UnstructuredGrid>
    <Piece NumberOfPoints="963" NumberOfCells="1758">
      <Points>
        <DataArray type="Float64" NumberOfComponents="3" format="ascii">
          1.600262034769e+002 1.257989505921e+001 0.000000000000e+000
          1.635346199106e+002 2.000000000000e+001 0.000000000000e+000
          1.554515002484e+002 2.000000000000e+001 0.000000000000e+000
          3.459306441575e+000 1.667621982453e+001 0.000000000000e+000
          3.062266634850e+000 1.705413688405e+001 0.000000000000e+000
          2.873380769063e+000 1.650527725632e+001 0.000000000000e+000
          1.514088444034e+000 1.865189448105e+001 0.000000000000e+000
          1.967902677551e+000 1.834103489750e+001 0.000000000000e+000
          2.034564522234e+000 1.890806711991e+001 0.000000000000e+000
          2.478275273162e+000 1.702762299110e+001 0.000000000000e+000
          2.952621433467e+000 1.774357373580e+001 0.000000000000e+000
          2.237893542067e+000 1.782457469610e+001 0.000000000000e+000
          3.313583922780e+000 3.274674552047e+000 0.000000000000e+000
          2.561432712787e+000 3.156040447793e+000 0.000000000000e+000
          3.047531989640e+000 2.714594415171e+000 0.000000000000e+000
          2.750804692284e+000 3.936058190693e+000 0.000000000000e+000
          2.599039179818e+000 2.451529939148e+000 0.000000000000e+000
          3.139686649742e+000 2.186924052088e+000 0.000000000000e+000
          1.919984553221e+000 3.358010194268e+000 0.000000000000e+000
          1.960900304591e+000 2.773319745251e+000 0.000000000000e+000
          1.894565400391e+000 1.733316857565e+001 0.000000000000e+000
          0.000000000000e+000 1.538461538461e+001 0.000000000000e+000
          5.816229249735e-001 1.567919247147e+001 0.000000000000e+000
          0.000000000000e+000 1.589743589743e+001 0.000000000000e+000
          9.766405669483e+001 2.000000000000e+001 0.000000000000e+000
          1.010672711393e+002 1.500000000000e+001 0.000000000000e+000
          1.029329279907e+002 2.000000000000e+001 0.000000000000e+000
          9.588503785413e+001 1.500000000000e+001 0.000000000000e+000
          1.039231647117e+002 1.000000000000e+001 0.000000000000e+000
          9.860830811271e+001 1.000000000000e+001 0.000000000000e+000
          1.010672711397e+002 5.000000000000e+000 0.000000000000e+000
          9.766405669557e+001 0.000000000000e+000 0.000000000000e+000
          1.029329279915e+002 0.000000000000e+000 0.000000000000e+000
          9.588503785449e+001 5.000000000000e+000 0.000000000000e+000
          7.892434178002e+001 2.000000000000e+001 0.000000000000e+000
          8.173808356948e+001 1.500000000000e+001 0.000000000000e+000
          8.328058896910e+001 2.000000000000e+001 0.000000000000e+000
          7.679274808893e+001 1.514423393202e+001 0.000000000000e+000
          7.970503892166e+001 1.000000000000e+001 0.000000000000e+000
          8.409930620613e+001 1.000000000000e+001 0.000000000000e+000
          8.173808356980e+001 5.000000000000e+000 0.000000000000e+000
          7.892434178065e+001 0.000000000000e+000 0.000000000000e+000
          8.328058896976e+001 0.000000000000e+000 0.000000000000e+000
          7.679274808925e+001 4.855766067979e+000 0.000000000000e+000
          1.084583939765e+002 2.000000000000e+001 0.000000000000e+000
          1.122011528880e+002 1.500000000000e+001 0.000000000000e+000
          1.142529496098e+002 2.000000000000e+001 0.000000000000e+000
          1.065018792644e+002 1.500000000000e+001 0.000000000000e+000
          1.153419838410e+002 1.000000000000e+001 0.000000000000e+000
          1.094968549120e+002 1.000000000000e+001 0.000000000000e+000
          1.122011528884e+002 5.000000000000e+000 0.000000000000e+000
          1.084583939773e+002 0.000000000000e+000 0.000000000000e+000
          1.142529496106e+002 0.000000000000e+000 0.000000000000e+000
          1.065018792648e+002 5.000000000000e+000 0.000000000000e+000
          1.181779812237e+002 1.500000000000e+001 0.000000000000e+000
          1.203297004775e+002 2.000000000000e+001 0.000000000000e+000
          1.214717707847e+002 1.000000000000e+001 0.000000000000e+000
          1.181779812242e+002 5.000000000000e+000 0.000000000000e+000
          1.203297004784e+002 0.000000000000e+000 0.000000000000e+000
          7.477039199538e+001 2.000000000000e+001 0.000000000000e+000
          7.551483469771e+001 1.000000000000e+001 0.000000000000e+000
          7.296959467356e+001 1.385646386579e+001 0.000000000000e+000
          7.477039199599e+001 0.000000000000e+000 0.000000000000e+000
          7.296959467379e+001 6.143536134207e+000 0.000000000000e+000
          6.918477198508e+001 1.366665532880e+001 0.000000000000e+000
          6.746477463053e+001 1.000000000000e+001 0.000000000000e+000
          7.151921701478e+001 1.000000000000e+001 0.000000000000e+000
          6.918477198529e+001 6.333344671202e+000 0.000000000000e+000
          9.263986346551e+001 2.000000000000e+001 0.000000000000e+000
          9.094345943471e+001 1.500000000000e+001 0.000000000000e+000
          9.354026529380e+001 1.000000000000e+001 0.000000000000e+000
          9.263986346623e+001 0.000000000000e+000 0.000000000000e+000
          9.094345943506e+001 5.000000000000e+000 0.000000000000e+000
          1.244344522558e+002 1.503312574389e+001 0.000000000000e+000
          1.267023895482e+002 2.000000000000e+001 0.000000000000e+000
          1.285510028831e+002 1.020485663255e+001 0.000000000000e+000
          1.244344522563e+002 5.033125743893e+000 0.000000000000e+000
          1.267023895491e+002 0.000000000000e+000 0.000000000000e+000
          8.623136018348e+001 1.500000000000e+001 0.000000000000e+000
          8.784898578901e+001 2.000000000000e+001 0.000000000000e+000
          8.870757443665e+001 1.000000000000e+001 0.000000000000e+000
          8.623136018382e+001 5.000000000000e+000 0.000000000000e+000
          8.784898578969e+001 0.000000000000e+000 0.000000000000e+000
          4.872472752737e+000 0.000000000000e+000 0.000000000000e+000
          4.204479229380e+000 6.412840757122e-001 0.000000000000e+000
          4.157376851380e+000 0.000000000000e+000 0.000000000000e+000
          5.192892237051e+000 7.280355562789e-001 0.000000000000e+000
          1.306630304579e+000 6.212843344151e-001 0.000000000000e+000
          1.050228457081e+000 0.000000000000e+000 0.000000000000e+000
          1.614006202528e+000 0.000000000000e+000 0.000000000000e+000
          1.266763055794e+001 1.554696422866e+001 0.000000000000e+000
          1.263589100638e+001 1.657720348306e+001 0.000000000000e+000
          1.174268578662e+001 1.633018318031e+001 0.000000000000e+000
          6.588835695415e+000 7.505681085529e+000 0.000000000000e+000
          6.456871838389e+000 6.658671683861e+000 0.000000000000e+000
          7.208099140752e+000 7.038822846307e+000 0.000000000000e+000
          4.412623338166e+000 9.138856431549e+000 0.000000000000e+000
          4.024185797397e+000 8.708923235630e+000 0.000000000000e+000
          4.601447447338e+000 8.507292699647e+000 0.000000000000e+000
          5.325995059827e-001 6.308307298123e+000 0.000000000000e+000
          0.000000000000e+000 6.666666666655e+000 0.000000000000e+000
          0.000000000000e+000 6.153846153835e+000 0.000000000000e+000
          3.986461521768e+000 8.146114708182e+000 0.000000000000e+000
          2.411603373059e+000 6.510912162016e+000 0.000000000000e+000
          1.807525763324e+000 6.938080373464e+000 0.000000000000e+000
          1.686779352680e+000 6.178928843543e+000 0.000000000000e+000
          2.510760620997e+000 7.229076682239e+000 0.000000000000e+000
          3.166991983438e+000 6.906135870389e+000 0.000000000000e+000
          3.452788915829e+000 6.276851216781e+000 0.000000000000e+000
          3.340122000742e+000 5.656365440432e+000 0.000000000000e+000
          4.047936562877e+000 5.873561587395e+000 0.000000000000e+000
          1.802463974828e+000 1.292744708026e+001 0.000000000000e+000
          1.383967161336e+000 1.330299552906e+001 0.000000000000e+000
          1.329690820161e+000 1.266495373033e+001 0.000000000000e+000
          2.267922292389e+000 1.431116835808e+001 0.000000000000e+000
          2.854613987538e+000 1.466581611369e+001 0.000000000000e+000
          2.339869278674e+000 1.493776402241e+001 0.000000000000e+000
          4.690956878046e+000 3.115726773737e+000 0.000000000000e+000
          4.014773718330e+000 2.850429494150e+000 0.000000000000e+000
          4.643493383296e+000 2.293565471327e+000 0.000000000000e+000
          5.186083944243e+000 1.661927139510e+000 0.000000000000e+000
          5.452965511439e+000 2.679881546544e+000 0.000000000000e+000
          5.360460104304e+000 3.539902157655e+000 0.000000000000e+000
          6.197986304192e+000 3.115706366113e+000 0.000000000000e+000
          7.929356606585e-001 1.634705420870e+001 0.000000000000e+000
          1.222819867503e+000 1.599517159419e+001 0.000000000000e+000
          1.215723647926e+000 1.546209040954e+001 0.000000000000e+000
          1.770601276021e+000 1.521217632514e+001 0.000000000000e+000
          1.242830150061e+000 1.493919370237e+001 0.000000000000e+000
          1.166444124506e+000 4.610115997312e+000 0.000000000000e+000
          1.851620547934e+000 4.486892013458e+000 0.000000000000e+000
          1.494152702314e+000 5.145235789232e+000 0.000000000000e+000
          1.353088107040e+000 4.090803091641e+000 0.000000000000e+000
          3.802567455935e+000 5.084697985980e+000 0.000000000000e+000
          1.014840185783e+000 5.494768572296e+000 0.000000000000e+000
          8.831064584820e-001 5.109311190608e+000 0.000000000000e+000
          1.727903958959e+000 1.618384478933e+001 0.000000000000e+000
          1.343261525342e+000 1.651800241408e+001 0.000000000000e+000
          3.308120627291e+000 8.593311644828e+000 0.000000000000e+000
[...]
      <PointData Scalars="LIQUID_PRESSURE">
        <DataArray type="Float64" Name="LIQUID_PRESSURE" format="ascii">
          1.000053661054e+006 1.001158702781e+006 9.992038370104e+005 1.003731221872e+006 1.003890987402e+006 1.004106361002e+006 1.004065012833e+006 1.004763096360e+006 1.004824689545e+006 1.004767298023e+006 1.003987783405e+006 1.004859613446e+006 1.003641302014e+006 1.004596826312e+006 1.003861990041e+006 1.004220138439e+006 1.004570974166e+006 1.003725090635e+006 1.004732232091e+006 1.004819074503e+006 1.004627363696e+006 1.004661881369e+006 1.004125707543e+006 1.004648957240e+006 1.003482524353e+006 1.003470846387e+006 1.003439418134e+006 1.003454395632e+006 1.003424662805e+006 1.003482911528e+006 1.003470232027e+006 1.003481954085e+006 1.003441223498e+006 1.003454526830e+006 1.003670249915e+006 1.003599733971e+006 1.003602436519e+006 1.003668879543e+006 1.003692487988e+006 1.003555141130e+006 1.003599708054e+006 1.003669806437e+006 1.003602520642e+006 1.003668354860e+006 1.003388557922e+006 1.003311063863e+006 1.003254929400e+006 1.003375375202e+006 1.003222434152e+006 1.003378971464e+006 1.003314090155e+006 1.003382772002e+006 1.003263914986e+006 1.003375782647e+006 1.003232875350e+006 1.003063846647e+006 1.003037077508e+006 1.003221210846e+006 1.003072961274e+006 1.003697482454e+006 1.003645473319e+006 1.003679575635e+006 1.003698970271e+006 1.003682262995e+006 1.003615501920e+006 1.003743757037e+006 1.003828148026e+006 1.003613328554e+006 1.003606122962e+006 1.003522931714e+006 1.003573716971e+006 1.003606126659e+006 1.003522840817e+006 1.002887922495e+006 1.002770691059e+006 1.002613923478e+006 1.002929197484e+006 1.002754599364e+006 1.003655273820e+006 1.003502185195e+006 1.003536216438e+006 1.003655312240e+006 1.003502163732e+006 1.004379965881e+006 1.004683082069e+006 1.004550464632e+006 1.003897299320e+006 1.003780435140e+006 1.003654634648e+006 1.004290388534e+006 1.004258286227e+006 1.004044526321e+006 1.004125270154e+006 1.004794718266e+006 1.004763987302e+006 1.004134108136e+006 1.004741866823e+006 1.004456153510e+006 1.004554552165e+006 1.004128427839e+006 1.004664599340e+006 1.004624311613e+006 1.004417564428e+006 1.004737986396e+006 1.004561981714e+006 1.004413585222e+006 1.004558627426e+006 1.003672903894e+006 1.003729943683e+006 1.003650157368e+006 1.004547260735e+006 1.004509369018e+006 1.003838472238e+006 1.003781724620e+006 1.004872046330e+006 1.004102199413e+006 1.004821317827e+006 1.004474363558e+006 1.004450312259e+006 1.004527287498e+006 1.003885276641e+006 1.003700877789e+006 1.003665054211e+006 1.004435225042e+006 1.003884844237e+006 1.003640602520e+006 1.003644515222e+006 1.004462698893e+006 1.003660495283e+006 1.003644595742e+006 1.004544862961e+006 1.003999830073e+006 1.003758133553e+006 1.004085827967e+006 1.003657291597e+006 1.003739214846e+006 1.004337265229e+006 1.003723628687e+006 1.003661561557e+006 1.004362434813e+006 1.003672868308e+006 1.003818626773e+006 1.003861643161e+006 1.003712012951e+006 1.003885342897e+006 1.003712264727e+006 1.003842884489e+006 1.003931930203e+006 1.003850001127e+006 1.004040870076e+006 1.004566102438e+006 1.004482158406e+006 1.004629897718e+006 1.003686101301e+006 1.004314514060e+006 1.004871134717e+006 1.004466416167e+006 1.004374017661e+006 1.003912076999e+006 1.003716029203e+006 1.004161663539e+006 1.003961581448e+006 1.003806530789e+006 1.003736733404e+006 1.003759512418e+006 1.004391753457e+006 1.004606618598e+006 1.004474314734e+006 1.004614694493e+006 1.004823997781e+006 1.004138508636e+006 1.004715935611e+006 1.003978464339e+006 1.003658640892e+006 1.004388829628e+006 1.003748907757e+006 1.004258165406e+006 1.004436902705e+006 1.004607902638e+006 1.003611487542e+006 1.004569259259e+006 1.004503358873e+006 1.003927801704e+006 1.004765754757e+006 1.003840089142e+006 1.004003869931e+006 1.003700267565e+006 1.003770486492e+006 1.004438984622e+006 1.004829056697e+006 1.004210171930e+006 1.004589007542e+006 1.004848616728e+006 1.004829853130e+006 1.003673137645e+006 1.004817937539e+006 1.003975205578e+006 1.004629832572e+006 1.003793086602e+006 1.003752532083e+006 1.004574819319e+006 1.004806707052e+006 1.004376405363e+006 1.003668423104e+006 1.003628945894e+006 1.003671438842e+006 1.004197735738e+006 1.003693561693e+006 1.003739361478e+006 1.003826957132e+006 1.003648861260e+006 1.004157712865e+006 1.004821070542e+006 1.003968573362e+006 1.003963112644e+006 1.004481880196e+006 1.004826231011e+006 1.003628857174e+006 1.004190279665e+006 1.003742126207e+006 1.004693853729e+006 1.004034764599e+006 1.004787311794e+006 1.003667068586e+006 1.004080561769e+006 1.003683125581e+006 1.004559609893e+006 1.004693483407e+006 1.003757011571e+006 1.004772719415e+006 1.003646500973e+006 1.003703074182e+006 1.004306262164e+006 1.003779750720e+006 1.004058937549e+006 1.003989678628e+006 1.004543249837e+006 1.004527644327e+006 1.003623063773e+006 1.004922456403e+006 1.004224765329e+006 1.004123945087e+006 1.004142489692e+006 1.004675111548e+006 1.004642618990e+006 1.004670936468e+006 1.004678452945e+006 1.004265224361e+006 1.004476953046e+006 1.004315735743e+006 1.003640555588e+006 1.004053704270e+006 1.004521634929e+006 1.004490617592e+006 1.004581817983e+006 1.004601988216e+006 1.004384845147e+006 1.004599313082e+006 1.004314437236e+006 1.004587976689e+006 1.004453332304e+006 1.004627091815e+006 1.004600026261e+006 1.003704731433e+006 1.003782769212e+006 1.003988313607e+006 1.003968201009e+006 1.003946002145e+006 1.003720528039e+006 1.003738940649e+006 1.003729629780e+006 1.004029424910e+006 1.003980178918e+006 1.003967392020e+006 1.003730737164e+006 1.003866046433e+006 1.003717827250e+006 1.003905073832e+006 1.004218419395e+006 1.003946627176e+006 1.003777849100e+006 1.003716465342e+006 1.003871529797e+006 1.003887909906e+006 1.004218031617e+006 1.003939145054e+006 1.003780126189e+006 1.004028318011e+006 1.004082935433e+006 1.004030972902e+006 1.004081099732e+006 1.004006547708e+006 1.004040520860e+006 1.004082928810e+006 1.004028294598e+006 1.004030933439e+006 1.004081082561e+006 1.004006545503e+006 1.004040522088e+006 1.003905179313e+006 1.004204160724e+006 1.003938401935e+006 1.004047930425e+006 1.003869691185e+006 1.003976674934e+006 1.004204148220e+006 1.003905241949e+006 1.003938360952e+006 1.004047900198e+006 1.003869689148e+006 1.003976667516e+006 1.004222305685e+006 1.004116091426e+006 1.003937615094e+006 1.004027985635e+006 1.004116103382e+006 1.004222405358e+006 1.003937605223e+006 1.004027587199e+006 1.004131952743e+006 1.003817948213e+006 1.004227530114e+006 1.003885327269e+006 1.004157611506e+006 1.004102568389e+006 1.003817885963e+006 1.004131943415e+006 1.004227702932e+006 1.003885354741e+006 1.004157638156e+006 1.004102561920e+006 1.003780775908e+006 1.003725669318e+006 1.003873600022e+006 1.003779652836e+006 1.003725948208e+006 1.003873258035e+006 1.004097117721e+006 1.004190254340e+006 1.004060259829e+006 1.004097108341e+006 1.004190362299e+006 1.004060328327e+006 1.003918800114e+006 1.003918972197e+006 1.004054201107e+006 1.003959040551e+006 1.003765594944e+006 1.003844565991e+006 1.004053500058e+006 1.003844747377e+006 1.004094492000e+006 1.003994320304e+006 1.004007596292e+006 1.004072525848e+006 1.004094480420e+006 1.004072518750e+006 1.003823983198e+006 1.003971580106e+006 1.003825815923e+006 1.004121399652e+006 1.004260092126e+006 1.004260297724e+006 1.004121754929e+006 1.004078049191e+006 1.003815916000e+006 1.003815935054e+006 1.004059329224e+006 1.003922709064e+006 1.004059340974e+006 1.004071180275e+006 1.004020533158e+006 1.004071154310e+006 1.004103331353e+006 1.004103278910e+006 1.004022830184e+006 1.004150859866e+006 1.004150889017e+006 1.003979129431e+006 1.003740611434e+006 1.003977277166e+006 1.004044794298e+006 1.003722206053e+006 1.003754972138e+006 1.003716692568e+006 1.003823918475e+006 1.003590395533e+006 1.003810452984e+006 1.003579107959e+006 1.003876040536e+006 1.003937436480e+006 1.004220923816e+006 1.004365453188e+006 1.004065819572e+006 1.004404027273e+006 1.004851721010e+006 1.004155805181e+006 1.004813952032e+006 1.004420906127e+006 1.004064458928e+006 1.004298263423e+006 1.004257514381e+006 1.003872076563e+006 1.001196230929e+006 1.001313743217e+006 1.000943766442e+006 1.004671973234e+006 1.004019379930e+006 1.004514465964e+006 1.004655093835e+006 1.004226923409e+006 1.004596925551e+006 1.003607971566e+006 1.004347141365e+006 1.004219807202e+006 1.004846953693e+006 1.004430623799e+006 1.003937930838e+006 1.003969841375e+006 1.004235561603e+006 1.004824834043e+006 1.003899244314e+006 1.004687981002e+006 1.004221845558e+006 1.004621072372e+006 1.003904409526e+006 1.003898942652e+006 1.003914991239e+006 1.004472343151e+006 1.003900081554e+006 1.004654032307e+006 1.004296135557e+006 1.004425467444e+006 1.004645119437e+006 1.004400597388e+006 1.004012221077e+006 1.004451462594e+006 1.004090873889e+006 1.003689258175e+006 1.004312200369e+006 1.004680199199e+006 1.004180415903e+006 1.003761218114e+006 1.003790549545e+006 1.004118050549e+006 1.004168909543e+006 1.004150158191e+006 1.004456566991e+006 1.004461746206e+006 1.004669736103e+006 1.004299828255e+006 1.004442209945e+006 1.003824674821e+006 1.004727236721e+006 1.003724647722e+006 1.004275391319e+006 1.004149823673e+006 1.004252918798e+006 1.004353504509e+006 1.003682402240e+006 1.003850500520e+006 1.004658308005e+006 1.003723545127e+006 1.003779260173e+006 1.004410650302e+006 1.004425663462e+006 1.003828291837e+006 1.003896300969e+006 1.003856041437e+006 1.004156298272e+006 1.003828073329e+006 1.004352280158e+006 1.004431240986e+006 1.004416283876e+006 1.003852141750e+006 1.004042035567e+006 1.004582097937e+006 1.004723799608e+006 1.004372782753e+006 1.003949736251e+006 1.004008473699e+006 1.003744255896e+006 1.003661376384e+006 1.004397733852e+006 1.004692634369e+006 1.003590578217e+006 1.003665732197e+006 1.004428939958e+006 1.004855888508e+006 1.004297090427e+006 1.003741268328e+006 1.004494636330e+006 1.004626871274e+006 1.004260527891e+006 1.003867746967e+006 1.004697000340e+006 1.004127654648e+006 1.004247990346e+006 1.004185140287e+006 1.004191908110e+006 1.003655495534e+006 1.003846868102e+006 1.004359108882e+006 1.004731559645e+006 1.004156014133e+006 1.003699670888e+006 1.004027985798e+006 1.004416688161e+006 1.004432772865e+006 1.004768538687e+006 1.003922164386e+006 1.003725988242e+006 1.004593618950e+006 1.004608401755e+006 1.004597757927e+006 1.004266287031e+006 1.003631880286e+006 1.004213041028e+006 1.004723736249e+006 1.004128276046e+006 1.004728055498e+006 1.004720571467e+006 1.004437908355e+006 1.003740625223e+006 1.004688311169e+006 1.004747725834e+006 1.003651563814e+006 1.003833315932e+006 1.004484741075e+006 1.004166362722e+006 1.003913251583e+006 1.003985120884e+006 1.004698245177e+006 1.004157814891e+006 1.004405518037e+006 1.004767836616e+006 1.003895386749e+006 1.004100076646e+006 1.004420092348e+006 1.003971820722e+006 1.004060595252e+006 1.004528137699e+006 1.003841424037e+006 1.003962053724e+006 1.003878594890e+006 1.004763792754e+006 1.004872060996e+006 1.003704861012e+006 1.003795054661e+006 1.003919596210e+006 1.004503065659e+006 1.004163658241e+006 1.004201423874e+006 1.004833576863e+006 1.004573857000e+006 1.004194161440e+006 1.004315753466e+006 1.004633183128e+006 1.004696449172e+006 1.004395418769e+006 1.004322615857e+006 1.003912597822e+006 1.004099571906e+006 1.003805026029e+006 1.004861066090e+006 1.003586587644e+006 1.004458508731e+006 1.004316396730e+006 1.003970616955e+006 1.003785182404e+006 1.004546458890e+006 1.003723827287e+006 1.003614790009e+006 1.004044941308e+006 1.004620784316e+006 1.004124433869e+006 1.004501163244e+006 1.004292277247e+006 1.004086319607e+006 1.004679678658e+006 1.003906675005e+006 1.003570814949e+006 1.004688256665e+006 1.004042010971e+006 1.004758576341e+006 1.003835442537e+006 1.004600864363e+006 1.004168473197e+006 1.003639934193e+006 1.004594462579e+006 1.004003644000e+006 1.004676782714e+006 1.003755833870e+006 1.004152702236e+006 1.004382878712e+006 1.003725639372e+006 1.003762474461e+006 1.004482046489e+006 1.000679130110e+006 1.000579554971e+006 1.000457008244e+006 1.004016867321e+006 1.004220989610e+006 1.004724797515e+006 1.004483438593e+006 1.003842128790e+006 1.004670521692e+006 1.004039010519e+006 1.003699133537e+006 1.004583975958e+006 1.004057682253e+006 1.003923189312e+006 1.003933006451e+006 1.004220096143e+006 1.004673505798e+006 1.004258626344e+006 1.004044533854e+006 1.004495517147e+006 1.003693837487e+006 1.004480627826e+006 1.003871907763e+006 1.004518065454e+006 1.004057107090e+006 1.004362423854e+006 1.004068291381e+006 1.003979955896e+006 1.002619029730e+006 1.000969653561e+006 1.004471592993e+006 1.003672113755e+006 1.003763526501e+006 1.004338743971e+006 1.003808059113e+006 1.004070107020e+006 1.004125598723e+006 1.004184049432e+006 1.004122117060e+006 1.004179039012e+006 1.003714059770e+006 1.003955378615e+006 1.003728316461e+006 1.003635671907e+006 1.003933458336e+006 1.004147089407e+006 1.004234547181e+006 1.004146372401e+006 1.004591598992e+006 1.004113250413e+006 1.003989399270e+006 1.004255079442e+006 1.004034911286e+006 1.003692868615e+006 1.004610664028e+006 1.004745602466e+006 1.003666626597e+006 1.003579993231e+006 1.004818816308e+006 1.003637117386e+006 1.003923343049e+006 1.004510729596e+006 1.000779995171e+006 1.000678259352e+006 1.004418007197e+006 1.004803409237e+006 1.004390119254e+006 1.004588422092e+006 1.004497298958e+006 1.004365087109e+006 1.003863687784e+006 1.003544193057e+006 1.003539725478e+006 1.004509697096e+006 1.004453674281e+006 1.003874043345e+006 1.004477647835e+006 1.004450775759e+006 1.004538436461e+006 1.004689110883e+006 1.004326838471e+006 1.003748280305e+006 1.000275938541e+006 1.000233517610e+006 1.004544359205e+006 1.004697075623e+006 1.004642164163e+006 1.003979705550e+006 1.004501744560e+006 1.004433167103e+006 1.004594512358e+006 1.004310176253e+006 1.003918929551e+006 1.004115064692e+006 1.004159046358e+006 1.004358498947e+006 1.004201647917e+006 1.004104936778e+006 1.004376233763e+006 1.004139571493e+006 1.004113702915e+006 1.004126772230e+006 1.003960605188e+006 1.004090283329e+006 1.004118877506e+006 1.004249190777e+006 1.004018258021e+006 1.004204553137e+006 1.004015333561e+006 1.004255202797e+006 1.004119741569e+006 1.004252458268e+006 1.004273170706e+006 1.004252644078e+006 1.004265253647e+006 1.004126261372e+006 1.004079421019e+006 1.003943066818e+006 1.004081052322e+006 1.003946646905e+006 1.004449275567e+006 1.004151709179e+006 1.004336509170e+006 1.004157206454e+006 1.004344265731e+006 1.004148031813e+006 1.004060519468e+006 1.004144194085e+006 1.004083602073e+006 1.004068107690e+006 1.004147515580e+006 1.004139678803e+006 1.004052481565e+006 1.004195501875e+006 1.004324463779e+006 1.004196459792e+006 1.004353951660e+006 1.003983799947e+006 1.004056782109e+006 1.003976816017e+006 1.004046644790e+006 1.004291738623e+006 1.004229097561e+006 1.004292065882e+006 1.004228502525e+006 1.004179361524e+006 1.003930079891e+006 1.004391576938e+006 1.004366569649e+006 1.004181802418e+006 1.004134292054e+006 1.003932101759e+006 1.004180891543e+006 1.004386201673e+006 1.004366739887e+006 1.004183318405e+006 1.004136230916e+006 1.004046579440e+006 1.004000532085e+006 1.004192608877e+006 1.004045713894e+006 1.003991593391e+006 1.004195582993e+006 1.004464362713e+006 1.004274146349e+006 1.004363145166e+006 1.004457330413e+006 1.004254695012e+006 1.004362972153e+006 1.003836946835e+006 1.004228800796e+006 1.003854902165e+006 1.003840606434e+006 1.004275286923e+006 1.003875882598e+006 1.004515872421e+006 1.003885181257e+006 1.004485430586e+006 1.003897331569e+006 1.004020316504e+006 1.004403809731e+006 1.004021906339e+006 1.004396191902e+006 1.004027261664e+006 1.004201755320e+006 1.004145206342e+006 1.004029169394e+006 1.004201610619e+006 1.004145473888e+006 1.003996951837e+006 1.004253703709e+006 1.003996026234e+006 1.004253494740e+006 1.004310543372e+006 1.004315161266e+006 1.004239201375e+006 1.004237384470e+006 1.003899087619e+006 1.003886222278e+006 1.003906729163e+006 1.004443865746e+006 1.003882407277e+006 1.004188821265e+006 1.004394292060e+006 1.004368372901e+006 1.003950690226e+006 1.003961487552e+006 1.003978147162e+006 1.004405960899e+006 1.004029050274e+006 1.004404987257e+006 1.004024057800e+006 1.004222467992e+006 1.003898054434e+006 1.004203763219e+006 1.003886652220e+006 1.003897562989e+006 1.004534486567e+006 1.004006812674e+006 1.003723645662e+006 1.004569585931e+006 1.004569807901e+006 1.004471212489e+006 1.004382301019e+006 1.004275844531e+006 1.004418585066e+006 1.004390657638e+006 1.004350087378e+006 1.003949143269e+006 1.004178963815e+006 1.003815080779e+006 1.004218211992e+006 1.003997432862e+006 1.003872276029e+006 1.004010355329e+006 1.003976161052e+006 1.003978367404e+006 1.004591053756e+006 1.004615318076e+006 1.004032845806e+006 1.004469825718e+006 1.004030721538e+006 1.004171218518e+006 1.004470702141e+006 1.000000000000e+006 1.000000000000e+006 1.000233440398e+006 1.004472052582e+006 1.004737548492e+006 1.003980256557e+006 1.004557366470e+006 1.004560863432e+006 1.003777070985e+006 1.004664300779e+006 1.004158022994e+006 1.004621668690e+006 1.003939991727e+006 1.003871563706e+006 1.003853122827e+006 1.003750178155e+006 1.004057273040e+006 1.003971327708e+006 1.004546353518e+006 1.004696747685e+006 1.004205403636e+006 1.003906781084e+006 1.003933120145e+006 1.004549594390e+006 1.004517658850e+006 1.004491344933e+006 1.003721705141e+006 1.003718900542e+006 1.004750596473e+006 1.004065615162e+006 1.004065930701e+006 1.004035685654e+006 1.004079339815e+006 1.004571506600e+006 1.003956891773e+006 1.003869449307e+006 1.003680874982e+006 1.004078954894e+006 1.004287758204e+006 1.003955974961e+006 1.004199178413e+006 1.003868804060e+006 1.000798561046e+006 9.992449482382e+005 1.004670505845e+006 1.004415287535e+006 1.001126708175e+006 1.004633447958e+006 1.004166871906e+006 1.004647255616e+006 1.004305403140e+006 1.004212510152e+006 1.000457001493e+006 1.004682767496e+006 1.004568897183e+006 1.003735552066e+006 1.004012229728e+006 1.004698623884e+006 1.004126888653e+006 1.004125538915e+006 1.004728366079e+006 1.004352296213e+006 1.004239426103e+006 1.004032485572e+006 1.004634173484e+006 1.004492176027e+006 1.003764006555e+006 1.004119384799e+006 1.004217124240e+006 1.004382667583e+006 1.004027472811e+006 1.003932282886e+006 1.004666558051e+006 1.004415713765e+006 1.004675392114e+006 1.004685801123e+006 1.004415135674e+006 1.003710431266e+006 1.003842471185e+006 1.001559845218e+006 1.004527355242e+006 1.000735936189e+006 1.004010236078e+006 1.003684647587e+006 1.004196888678e+006 1.003912793516e+006 1.004435302527e+006 1.004746033248e+006 1.004488320034e+006 1.004485943468e+006 1.004621845799e+006 1.004588110458e+006 1.004613927108e+006 1.004679891361e+006 1.004578545701e+006 1.000554178571e+006 1.002017077001e+006 9.982554727248e+005 1.002432249945e+006 1.004453137654e+006 1.002117417599e+006 1.002631658458e+006 1.003798973791e+006 1.004453449671e+006 1.004565365627e+006 1.004660609568e+006 1.002127284454e+006 1.004027175901e+006 1.004064063745e+006 1.004054946719e+006 1.004054648752e+006 1.004206527444e+006 1.004202792214e+006 1.004663441262e+006 1.004466337632e+006 1.003939778130e+006 1.003943899971e+006 1.003928212878e+006 1.003944713709e+006 1.004452988939e+006 1.004536727227e+006 
        </DataArray>
        <DataArray type="Float64" Name="MEAN_PRESSURE" format="ascii">