<?xml version="1.0"?>
<VTKFile type="UnstructuredGrid" version="0.1" byte_order="LittleEndian">
  <UnstructuredGrid>
    <Piece NumberOfPoints="963" NumberOfCells="1758">
      <Points>
        <DataArray type="Float64" NumberOfComponents="3" format="ascii">
          1.600262034769e+002 1.257989505921e+001 0.000000000000e+000
          1.635346199106e+002 2.000000000000e+001 0.000000000000e+000
          1.554515002484e+002 2.000000000000e+001 0.000000000000e+000
          3.459306441575e+000 1.667621982453e+001 0.000000000000e+000
          3.062266634850e+000 1.705413688405e+001 0.000000000000e+000
          2.873380769063e+000 1.650527725632e+001 0.000000000000e+000
          1.514088444034e+000 1.865189448105e+001 0.000000000000e+000
          1.967902677551e+000 1.834103489750e+001 0.000000000000e+000
          2.034564522234e+000 1.890806711991e+001 0.000000000000e+000
          2.478275273162e+000 1.702762299110e+001 0.000000000000e+000
          2.952621433467e+000 1.774357373580e+001 0.000000000000e+000
          2.237893542067e+000 1.782457469610e+001 0.000000000000e+000
          3.313583922780e+000 3.274674552047e+000 0.000000000000e+000
          2.561432712787e+000 3.156040447793e+000 0.000000000000e+000
          3.047531989640e+000 2.714594415171e+000 0.000000000000e+000
          2.750804692284e+000 3.936058190693e+000 0.000000000000e+000
          2.599039179818e+000 2.451529939148e+000 0.000000000000e+000
          3.139686649742e+000 2.186924052088e+000 0.000000000000e+000
          1.919984553221e+000 3.358010194268e+000 0.000000000000e+000
          1.960900304591e+000 2.773319745251e+000 0.000000000000e+000
          1.894565400391e+000 1.733316857565e+001 0.000000000000e+000
          0.000000000000e+000 1.538461538461e+001 0.000000000000e+000
          5.816229249735e-001 1.567919247147e+001 0.000000000000e+000
          0.000000000000e+000 1.589743589743e+001 0.000000000000e+000
          9.766405669483e+001 2.000000000000e+001 0.000000000000e+000
          1.010672711393e+002 1.500000000000e+001 0.000000000000e+000
          1.029329279907e+002 2.000000000000e+001 0.000000000000e+000
          9.588503785413e+001 1.500000000000e+001 0.000000000000e+000
          1.039231647117e+002 1.000000000000e+001 0.000000000000e+000
          9.860830811271e+001 1.000000000000e+001 0.000000000000e+000
          1.010672711397e+002 5.000000000000e+000 0.000000000000e+000
          9.766405669557e+001 0.000000000000e+000 0.000000000000e+000
          1.029329279915e+002 0.000000000000e+000 0.000000000000e+000
          9.588503785449e+001 5.000000000000e+000 0.000000000000e+000
          7.892434178002e+001 2.000000000000e+001 0.000000000000e+000
          8.173808356948e+001 1.500000000000e+001 0.000000000000e+000
          8.328058896910e+001 2.000000000000e+001 0.000000000000e+000
          7.679274808893e+001 1.514423393202e+001 0.000000000000e+000
          7.970503892166e+001 1.000000000000e+001 0.000000000000e+000
          8.409930620613e+001 1.000000000000e+001 0.000000000000e+000
          8.173808356980e+001 5.000000000000e+000 0.000000000000e+000
          7.892434178065e+001 0.000000000000e+000 0.000000000000e+000
          8.328058896976e+001 0.000000000000e+000 0.000000000000e+000
          7.679274808925e+001 4.855766067979e+000 0.000000000000e+000
          1.084583939765e+002 2.000000000000e+001 0.000000000000e+000
          1.122011528880e+002 1.500000000000e+001 0.000000000000e+000
          1.142529496098e+002 2.000000000000e+001 0.000000000000e+000
          1.065018792644e+002 1.500000000000e+001 0.000000000000e+000
          1.153419838410e+002 1.000000000000e+001 0.000000000000e+000
          1.094968549120e+002 1.000000000000e+001 0.000000000000e+000
          1.122011528884e+002 5.000000000000e+000 0.000000000000e+000
          1.084583939773e+002 0.000000000000e+000 0.000000000000e+000
          1.142529496106e+002 0.000000000000e+000 0.000000000000e+000
          1.065018792648e+002 5.000000000000e+000 0.000000000000e+000
          1.181779812237e+002 1.500000000000e+001 0.000000000000e+000
          1.203297004775e+002 2.000000000000e+001 0.000000000000e+000
          1.214717707847e+002 1.000000000000e+001 0.000000000000e+000
          1.181779812242e+002 5.000000000000e+000 0.000000000000e+000
          1.203297004784e+002 0.000000000000e+000 0.000000000000e+000
          7.477039199538e+001 2.000000000000e+001 0.000000000000e+000
          7.551483469771e+001 1.000000000000e+001 0.000000000000e+000
          7.296959467356e+001 1.385646386579e+001 0.000000000000e+000
          7.477039199599e+001 0.000000000000e+000 0.000000000000e+000
          7.296959467379e+001 6.143536134207e+000 0.000000000000e+000
          6.918477198508e+001 1.366665532880e+001 0.000000000000e+000
          6.746477463053e+001 1.000000000000e+001 0.000000000000e+000
          7.151921701478e+001 1.000000000000e+001 0.000000000000e+000
          6.918477198529e+001 6.333344671202e+000 0.000000000000e+000
          9.263986346551e+001 2.000000000000e+001 0.000000000000e+000
          9.094345943471e+001 1.500000000000e+001 0.000000000000e+000
          9.354026529380e+001 1.000000000000e+001 0.000000000000e+000
          9.263986346623e+001 0.000000000000e+000 0.000000000000e+000
          9.094345943506e+001 5.000000000000e+000 0.000000000000e+000
          1.244344522558e+002 1.503312574389e+001 0.000000000000e+000
          1.267023895482e+002 2.000000000000e+001 0.000000000000e+000
          1.285510028831e+002 1.020485663255e+001 0.000000000000e+000
          1.244344522563e+002 5.033125743893e+000 0.000000000000e+000
          1.267023895491e+002 0.000000000000e+000 0.000000000000e+000
          8.623136018348e+001 1.500000000000e+001 0.000000000000e+000
          8.784898578901e+001 2.000000000000e+001 0.000000000000e+000
          8.870757443665e+001 1.000000000000e+001 0.000000000000e+000
          8.623136018382e+001 5.000000000000e+000 0.000000000000e+000
          8.784898578969e+001 0.000000000000e+000 0.000000000000e+000
          4.872472752737e+000 0.000000000000e+000 0.000000000000e+000
          4.204479229380e+000 6.412840757122e-001 0.000000000000e+000
          4.157376851380e+000 0.000000000000e+000 0.000000000000e+000
          5.192892237051e+000 7.280355562789e-001 0.000000000000e+000
          1.306630304579e+000 6.212843344151e-001 0.000000000000e+000
          1.050228457081e+000 0.000000000000e+000 0.000000000000e+000
          1.614006202528e+000 0.000000000000e+000 0.000000000000e+000
          1.266763055794e+001 1.554696422866e+001 0.000000000000e+000
          1.263589100638e+001 1.657720348306e+001 0.000000000000e+000
          1.174268578662e+001 1.633018318031e+001 0.000000000000e+000
          6.588835695415e+000 7.505681085529e+000 0.000000000000e+000
          6.456871838389e+000 6.658671683861e+000 0.000000000000e+000
          7.208099140752e+000 7.038822846307e+000 0.000000000000e+000
          4.412623338166e+000 9.138856431549e+000 0.000000000000e+000
          4.024185797397e+000 8.708923235630e+000 0.000000000000e+000
          4.601447447338e+000 8.507292699647e+000 0.000000000000e+000
          5.325995059827e-001 6.308307298123e+000 0.000000000000e+000
          0.000000000000e+000 6.666666666655e+000 0.000000000000e+000
          0.000000000000e+000 6.153846153835e+000 0.000000000000e+000
          3.986461521768e+000 8.146114708182e+000 0.000000000000e+000
          2.411603373059e+000 6.510912162016e+000 0.000000000000e+000
          1.807525763324e+000 6.938080373464e+000 0.000000000000e+000
          1.686779352680e+000 6.178928843543e+000 0.000000000000e+000
          2.510760620997e+000 7.229076682239e+000 0.000000000000e+000
          3.166991983438e+000 6.906135870389e+000 0.000000000000e+000
          3.452788915829e+000 6.276851216781e+000 0.000000000000e+000
          3.340122000742e+000 5.656365440432e+000 0.000000000000e+000
          4.047936562877e+000 5.873561587395e+000 0.000000000000e+000
          1.802463974828e+000 1.292744708026e+001 0.000000000000e+000
          1.383967161336e+000 1.330299552906e+001 0.000000000000e+000
          1.329690820161e+000 1.266495373033e+001 0.000000000000e+000
          2.267922292389e+000 1.431116835808e+001 0.000000000000e+000
          2.854613987538e+000 1.466581611369e+001 0.000000000000e+000
          2.339869278674e+000 1.493776402241e+001 0.000000000000e+000
          4.690956878046e+000 3.115726773737e+000 0.000000000000e+000
          4.014773718330e+000 2.850429494150e+000 0.000000000000e+000
          4.643493383296e+000 2.293565471327e+000 0.000000000000e+000
          5.186083944243e+000 1.661927139510e+000 0.000000000000e+000
          5.452965511439e+000 2.679881546544e+000 0.000000000000e+000
          5.360460104304e+000 3.539902157655e+000 0.000000000000e+000
          6.197986304192e+000 3.115706366113e+000 0.000000000000e+000
          7.929356606585e-001 1.634705420870e+001 0.000000000000e+000
          1.222819867503e+000 1.599517159419e+001 0.000000000000e+000
          1.215723647926e+000 1.546209040954e+001 0.000000000000e+000
          1.770601276021e+000 1.521217632514e+001 0.000000000000e+000
          1.242830150061e+000 1.493919370237e+001 0.000000000000e+000
          1.166444124506e+000 4.610115997312e+000 0.000000000000e+000
          1.851620547934e+000 4.486892013458e+000 0.000000000000e+000
          1.494152702314e+000 5.145235789232e+000 0.000000000000e+000
          1.353088107040e+000 4.090803091641e+000 0.000000000000e+000
          3.802567455935e+000 5.084697985980e+000 0.000000000000e+000
          1.014840185783e+000 5.494768572296e+000 0.000000000000e+000
          8.831064584820e-001 5.109311190608e+000 0.000000000000e+000
          1.727903958959e+000 1.618384478933e+001 0.000000000000e+000
          1.343261525342e+000 1.651800241408e+001 0.000000000000e+000
          3.308120627291e+000 8.593311644828e+000 0.000000000000e+000
[...]
      <PointData Scalars="LIQUID_PRESSURE">
        <DataArray type="Float64" Name="LIQUID_PRESSURE" format="ascii">
          1.000717232668e+006 1.001221973771e+006 1.000296963585e+006 1.007896952764e+006 1.008047627845e+006 1.008257632598e+006 1.008233884014e+006 1.008932806500e+006 1.008995146442e+006 1.008922156318e+006 1.008138783984e+006 1.009024764086e+006 1.007802997784e+006 1.008753407802e+006 1.008017168673e+006 1.008376648217e+006 1.008723610425e+006 1.007883405605e+006 1.008902205501e+006 1.008990294737e+006 1.008799187168e+006 1.008818508224e+006 1.008262415770e+006 1.008804957170e+006 1.004519612950e+006 1.004331757149e+006 1.004208483987e+006 1.004558755751e+006 1.004140605043e+006 1.004474614152e+006 1.004331227807e+006 1.004519019232e+006 1.004211150781e+006 1.004558949080e+006 1.005682439141e+006 1.005460341326e+006 1.005385392747e+006 1.005778889422e+006 1.005674595622e+006 1.005278827617e+006 1.005460211318e+006 1.005681933883e+006 1.005385440467e+006 1.005778668148e+006 1.003876109609e+006 1.003625655987e+006 1.003476484170e+006 1.003943247581e+006 1.003389603993e+006 1.003823622235e+006 1.003629643679e+006 1.003867219358e+006 1.003490612501e+006 1.003943543753e+006 1.003363329984e+006 1.003063871487e+006 1.003029479958e+006 1.003336909678e+006 1.003063838098e+006 1.005903327986e+006 1.005809244538e+006 1.005968296581e+006 1.005905380950e+006 1.005971248205e+006 1.006052523984e+006 1.006304647098e+006 1.006207641455e+006 1.006049137407e+006 1.004941639272e+006 1.004906914784e+006 1.004847467852e+006 1.004941693768e+006 1.004906847734e+006 1.002892038358e+006 1.002868854379e+006 1.002702783411e+006 1.002936390471e+006 1.002792937186e+006 1.005316716873e+006 1.005025352058e+006 1.005037864362e+006 1.005316786586e+006 1.005025383590e+006 1.008508581766e+006 1.008844077785e+006 1.008714514182e+006 1.008035073807e+006 1.007945847979e+006 1.007810743550e+006 1.008463019818e+006 1.008352037178e+006 1.008145120504e+006 1.008226526103e+006 1.008927459955e+006 1.008904171092e+006 1.008261930972e+006 1.008879235891e+006 1.008614632710e+006 1.008695826667e+006 1.008263073476e+006 1.008801316921e+006 1.008762479413e+006 1.008575323377e+006 1.008892852820e+006 1.008731004722e+006 1.008586067897e+006 1.008710506916e+006 1.007834245688e+006 1.007901607344e+006 1.007812618914e+006 1.008705101326e+006 1.008680335874e+006 1.008005667058e+006 1.007949021730e+006 1.009032348762e+006 1.008250663205e+006 1.008976229306e+006 1.008609179535e+006 1.008604688701e+006 1.008666197780e+006 1.008022878568e+006 1.007845984550e+006 1.007812865510e+006 1.008582887650e+006 1.008021314214e+006 1.007799426629e+006 1.007805195832e+006 1.008633448951e+006 1.007823730257e+006 1.007801259044e+006 1.008722970256e+006 1.008173001483e+006 1.007925350248e+006 1.008255293050e+006 1.007809949588e+006 1.007880639806e+006 1.008507205741e+006 1.007888272730e+006 1.007828752797e+006 1.008514855365e+006 1.007838668809e+006 1.007960827814e+006 1.007999519585e+006 1.007876491316e+006 1.008023214819e+006 1.007858194986e+006 1.008014259997e+006 1.008083805076e+006 1.007988474028e+006 1.008193501532e+006 1.008720804376e+006 1.008620732027e+006 1.008792943608e+006 1.007849851490e+006 1.008487182182e+006 1.009040836682e+006 1.008623780626e+006 1.008501949292e+006 1.008057746983e+006 1.007874715693e+006 1.008316007804e+006 1.008133188378e+006 1.007976013161e+006 1.007880485630e+006 1.007895605396e+006 1.008560263026e+006 1.008771288532e+006 1.008614220986e+006 1.008777800377e+006 1.008982483530e+006 1.008307726735e+006 1.008871937651e+006 1.008148128343e+006 1.007813084332e+006 1.008541461947e+006 1.007914562236e+006 1.008409816547e+006 1.008572254291e+006 1.008762462441e+006 1.007763847565e+006 1.008743450086e+006 1.008675841866e+006 1.008081486201e+006 1.008919351190e+006 1.007976624756e+006 1.008135926202e+006 1.007864409818e+006 1.007938491480e+006 1.008611202581e+006 1.008990713803e+006 1.008362242844e+006 1.008716920972e+006 1.009009821269e+006 1.008989093697e+006 1.007816699889e+006 1.008975131353e+006 1.008143941007e+006 1.008783790483e+006 1.007958739227e+006 1.007922835712e+006 1.008733601072e+006 1.008977114250e+006 1.008549545409e+006 1.007832461821e+006 1.007780830521e+006 1.007839945638e+006 1.008368805581e+006 1.007856796494e+006 1.007898811138e+006 1.007994293216e+006 1.007797890646e+006 1.008330623558e+006 1.008987446352e+006 1.006647727883e+006 1.006642460974e+006 1.008630908818e+006 1.008986153659e+006 1.007771939039e+006 1.008336839958e+006 1.007885309213e+006 1.008819105372e+006 1.008203893961e+006 1.008930321397e+006 1.007823570964e+006 1.008250654119e+006 1.007836532634e+006 1.008731997104e+006 1.008845175733e+006 1.007902652512e+006 1.008942503929e+006 1.007807909549e+006 1.007865370271e+006 1.008457394292e+006 1.007950725380e+006 1.008191984662e+006 1.008153310460e+006 1.008716341757e+006 1.008702436601e+006 1.007783681824e+006 1.009087529801e+006 1.008396318317e+006 1.008253989538e+006 1.008278472446e+006 1.008818524935e+006 1.008793276986e+006 1.008816623620e+006 1.008820313459e+006 1.008397774447e+006 1.008627995584e+006 1.008446204336e+006 1.007792222825e+006 1.008182972048e+006 1.008676136095e+006 1.008636837032e+006 1.008746015422e+006 1.008765754107e+006 1.008516782887e+006 1.008764301648e+006 1.008444460544e+006 1.008748989761e+006 1.008591829814e+006 1.008791463473e+006 1.008765652580e+006 1.006558917001e+006 1.006533360871e+006 1.006737279271e+006 1.006899323219e+006 1.006680200563e+006 1.006566807603e+006 1.006481234025e+006 1.006588657672e+006 1.006779001345e+006 1.006913919352e+006 1.006703761942e+006 1.006578682889e+006 1.006985083296e+006 1.006739939946e+006 1.006892023206e+006 1.007415089792e+006 1.006948538621e+006 1.006870606261e+006 1.006737897839e+006 1.006990628566e+006 1.006873657396e+006 1.007414708387e+006 1.006940440274e+006 1.006872869762e+006 1.007714344154e+006 1.007739456262e+006 1.007653454741e+006 1.007797199480e+006 1.007627214965e+006 1.007724128420e+006 1.007739444173e+006 1.007714323198e+006 1.007653400966e+006 1.007797199600e+006 1.007627207391e+006 1.007724138905e+006 1.007458179140e+006 1.007741688633e+006 1.007426025502e+006 1.007642031360e+006 1.007341661257e+006 1.007530499938e+006 1.007741671352e+006 1.007458238999e+006 1.007425984379e+006 1.007641988015e+006 1.007341661508e+006 1.007530484579e+006 1.008059661760e+006 1.007924870760e+006 1.007716462419e+006 1.007875273739e+006 1.007924901527e+006 1.008059818774e+006 1.007716488338e+006 1.007874838484e+006 1.007561454106e+006 1.007161228592e+006 1.007572604411e+006 1.007313357349e+006 1.007494097708e+006 1.007522772430e+006 1.007161191185e+006 1.007561463253e+006 1.007572803124e+006 1.007313398807e+006 1.007494146328e+006 1.007522780388e+006 1.006987369671e+006 1.006958767233e+006 1.007088771161e+006 1.006986214177e+006 1.006959051114e+006 1.007088416538e+006 1.007842383682e+006 1.007967584099e+006 1.007794079800e+006 1.007842403180e+006 1.007967730507e+006 1.007794166241e+006 1.007687918913e+006 1.007688034576e+006 1.007239351424e+006 1.007207807771e+006 1.006884788108e+006 1.007115368337e+006 1.007238628030e+006 1.007115556779e+006 1.007702661821e+006 1.007629557215e+006 1.007582250953e+006 1.007739901475e+006 1.007702646170e+006 1.007739896335e+006 1.006885274111e+006 1.007014603686e+006 1.006887068264e+006 1.007947082785e+006 1.008102425143e+006 1.008102856445e+006 1.007947608715e+006 1.007423723590e+006 1.007176302607e+006 1.007176342717e+006 1.007594403621e+006 1.007422532366e+006 1.007594414000e+006 1.007535698036e+006 1.007451548465e+006 1.007535674208e+006 1.007870735509e+006 1.007870692311e+006 1.007719201502e+006 1.007879760327e+006 1.007879800413e+006 1.006940917308e+006 1.006607472416e+006 1.006938630979e+006 1.007802233744e+006 1.006487971725e+006 1.006456647175e+006 1.006482709325e+006 1.006405587018e+006 1.006142849082e+006 1.006386992136e+006 1.006128863373e+006 1.008010219460e+006 1.008082782060e+006 1.008346671380e+006 1.008495709396e+006 1.008223453918e+006 1.008557173485e+006 1.009012381587e+006 1.008306847427e+006 1.008981713538e+006 1.008553413912e+006 1.008203143019e+006 1.008468901126e+006 1.008388416678e+006 1.008028850989e+006 1.000678251889e+006 1.001562893551e+006 1.002082945886e+006 1.008801720602e+006 1.008160917337e+006 1.008641897376e+006 1.008792376882e+006 1.008392699805e+006 1.008753682995e+006 1.007764840599e+006 1.008510692064e+006 1.008391387640e+006 1.009007382893e+006 1.008600721213e+006 1.008070164031e+006 1.008110184378e+006 1.008368636864e+006 1.008985323338e+006 1.008053246972e+006 1.008828764064e+006 1.008353177158e+006 1.008769300220e+006 1.008056966624e+006 1.008029736013e+006 1.008048568853e+006 1.008597933761e+006 1.008046992500e+006 1.008790172862e+006 1.008438975091e+006 1.008536324834e+006 1.008769901142e+006 1.008534786684e+006 1.008146309517e+006 1.008616038353e+006 1.008264515181e+006 1.007859507126e+006 1.008455652688e+006 1.008799537230e+006 1.008290019525e+006 1.007882482792e+006 1.007959703277e+006 1.008271927661e+006 1.008279316517e+006 1.008249998055e+006 1.008560771406e+006 1.008585967269e+006 1.008805120365e+006 1.008404862613e+006 1.008552692443e+006 1.007940918981e+006 1.008874499724e+006 1.007876514671e+006 1.008423322672e+006 1.008227068804e+006 1.008336047558e+006 1.008521780049e+006 1.007844590478e+006 1.007988894426e+006 1.008790834700e+006 1.007866560973e+006 1.007912738772e+006 1.008538856530e+006 1.008562107559e+006 1.007977561208e+006 1.008026942391e+006 1.007988118020e+006 1.008267102137e+006 1.007931875468e+006 1.008448302151e+006 1.008542732493e+006 1.008515475894e+006 1.007964166827e+006 1.008145301402e+006 1.008667193787e+006 1.008882124990e+006 1.008541837303e+006 1.008072775114e+006 1.008133423628e+006 1.007892590011e+006 1.007823371864e+006 1.008531759121e+006 1.008833497150e+006 1.007746891938e+006 1.007814394699e+006 1.008580091153e+006 1.009018966337e+006 1.008444134913e+006 1.007890151733e+006 1.008623714761e+006 1.008746375271e+006 1.008376805789e+006 1.008005763418e+006 1.008808148374e+006 1.008243578473e+006 1.008381428059e+006 1.008344963419e+006 1.008349073272e+006 1.007801751059e+006 1.007987442036e+006 1.008492789335e+006 1.008859963563e+006 1.008294306074e+006 1.007845859442e+006 1.008149466120e+006 1.008514895569e+006 1.008539847635e+006 1.008922630012e+006 1.008091748233e+006 1.007864856172e+006 1.008693515636e+006 1.008748475408e+006 1.008697936220e+006 1.008389886688e+006 1.007784702653e+006 1.008343359446e+006 1.008858899209e+006 1.008260705612e+006 1.008869171436e+006 1.008844197378e+006 1.008580253998e+006 1.007884542158e+006 1.008808678937e+006 1.008917428798e+006 1.007816525488e+006 1.007984668339e+006 1.008646791180e+006 1.008290779628e+006 1.008055660131e+006 1.008121007699e+006 1.008827470625e+006 1.008291954537e+006 1.008575185875e+006 1.008924676440e+006 1.008029168026e+006 1.008219780297e+006 1.008540887073e+006 1.008100598419e+006 1.008212381183e+006 1.008629548282e+006 1.007946182640e+006 1.008065483688e+006 1.008031761025e+006 1.008913879707e+006 1.009037339732e+006 1.007836402541e+006 1.007918078695e+006 1.008038587714e+006 1.008612302056e+006 1.008283468295e+006 1.008321695219e+006 1.008998426614e+006 1.008749091482e+006 1.008347198941e+006 1.008427981332e+006 1.008723235978e+006 1.008825978552e+006 1.008542354019e+006 1.008468188353e+006 1.008044570266e+006 1.008212466207e+006 1.007925680738e+006 1.009025019475e+006 1.007743649664e+006 1.008597686095e+006 1.008482396695e+006 1.008138796361e+006 1.007916104746e+006 1.008655189605e+006 1.007869087391e+006 1.007769713854e+006 1.008177418148e+006 1.008743103281e+006 1.008246851059e+006 1.008613644898e+006 1.008440354715e+006 1.008214862713e+006 1.008819896416e+006 1.008034214396e+006 1.007715615585e+006 1.008847467752e+006 1.008196486462e+006 1.008920726423e+006 1.007981671862e+006 1.008701744091e+006 1.008313507731e+006 1.007802058420e+006 1.008706221292e+006 1.008127207566e+006 1.008774094714e+006 1.007911326115e+006 1.008286867950e+006 1.008516982984e+006 1.007853730417e+006 1.007893386645e+006 1.008589510104e+006 1.001064240415e+006 1.001064448596e+006 1.000793359205e+006 1.008164290531e+006 1.008352039575e+006 1.008879197041e+006 1.008637895501e+006 1.008002051507e+006 1.008806076257e+006 1.008181308085e+006 1.007868568307e+006 1.008714129468e+006 1.008192293494e+006 1.006381900885e+006 1.006393737213e+006 1.008351367701e+006 1.008815235596e+006 1.008428699048e+006 1.008186590567e+006 1.008602453703e+006 1.007847616554e+006 1.008605773467e+006 1.008009032885e+006 1.008649945107e+006 1.008226460761e+006 1.008462975373e+006 1.008197480174e+006 1.008113037786e+006 1.003381860869e+006 1.002431204945e+006 1.008630413333e+006 1.007828275447e+006 1.007918358283e+006 1.008482163337e+006 1.007957492337e+006 1.008207087740e+006 1.008002904380e+006 1.008052906413e+006 1.007999003080e+006 1.008047763732e+006 1.007882172608e+006 1.008090491736e+006 1.007870162962e+006 1.007787856802e+006 1.007776493181e+006 1.007986715222e+006 1.008055162876e+006 1.007985767643e+006 1.008686263737e+006 1.008213177058e+006 1.008159841813e+006 1.008372294154e+006 1.008203676694e+006 1.007854095160e+006 1.008770110267e+006 1.008888832213e+006 1.007821274089e+006 1.007731442991e+006 1.008986986591e+006 1.007803515540e+006 1.008029318638e+006 1.008611517914e+006 1.001632460919e+006 1.001431500340e+006 1.008551877669e+006 1.008974500463e+006 1.008560838111e+006 1.008743432097e+006 1.008630008164e+006 1.008497737116e+006 1.007996826869e+006 1.005913392499e+006 1.005907234648e+006 1.008596705074e+006 1.008594755904e+006 1.007950168684e+006 1.008553910904e+006 1.008516420733e+006 1.008646180604e+006 1.008840612503e+006 1.008489763020e+006 1.007852165417e+006 1.000508166586e+006 1.000418885098e+006 1.008623622695e+006 1.008838254277e+006 1.008789135929e+006 1.008090576027e+006 1.008662893778e+006 1.008569262462e+006 1.008756686764e+006 1.008406916342e+006 1.007822675494e+006 1.007998366302e+006 1.008019011912e+006 1.008286742348e+006 1.008120848296e+006 1.007986606474e+006 1.008306142171e+006 1.008059004877e+006 1.008056768270e+006 1.008080579512e+006 1.007902924803e+006 1.008046697973e+006 1.008067272324e+006 1.008209275831e+006 1.007994245378e+006 1.008177938038e+006 1.007993621869e+006 1.008228615820e+006 1.008104149240e+006 1.008249544423e+006 1.008269014790e+006 1.008249028692e+006 1.008261348544e+006 1.008141588304e+006 1.008102253635e+006 1.007959670123e+006 1.008104191045e+006 1.007963541958e+006 1.008484698462e+006 1.008200361325e+006 1.008369936198e+006 1.008205353099e+006 1.008376574649e+006 1.008041389777e+006 1.007955030812e+006 1.008060235417e+006 1.008011555219e+006 1.007961247874e+006 1.008040886145e+006 1.008054595795e+006 1.007980514797e+006 1.008151501589e+006 1.008291975638e+006 1.008154179923e+006 1.008321104617e+006 1.007965717273e+006 1.008046399232e+006 1.007958824805e+006 1.008037645767e+006 1.008290766641e+006 1.008242362752e+006 1.008291150050e+006 1.008241102777e+006 1.008157114462e+006 1.007926246869e+006 1.008352071181e+006 1.008366515016e+006 1.008139223260e+006 1.008135299949e+006 1.007928071996e+006 1.008158493847e+006 1.008346682353e+006 1.008366318793e+006 1.008140716485e+006 1.008137241362e+006 1.008054332932e+006 1.008030597362e+006 1.008203940425e+006 1.008052487168e+006 1.008020673722e+006 1.008206285985e+006 1.008497327217e+006 1.008309936664e+006 1.008393713311e+006 1.008489317105e+006 1.008292350342e+006 1.008392905948e+006 1.007890439067e+006 1.008281695332e+006 1.007904168310e+006 1.007895279626e+006 1.008332286488e+006 1.007927146375e+006 1.008568121506e+006 1.007955486564e+006 1.008538718387e+006 1.007974432544e+006 1.008045030700e+006 1.008436764601e+006 1.008047500739e+006 1.008427911479e+006 1.007932779534e+006 1.008080525272e+006 1.008040654213e+006 1.007934463250e+006 1.008080449790e+006 1.008040967278e+006 1.007932412760e+006 1.008181756446e+006 1.007931322501e+006 1.008181760874e+006 1.008286607893e+006 1.008291500354e+006 1.008238792802e+006 1.008236396000e+006 1.007912778733e+006 1.007898296886e+006 1.008023977282e+006 1.008560749842e+006 1.008007315373e+006 1.008323908529e+006 1.008423745734e+006 1.008398883910e+006 1.008036219257e+006 1.008046925263e+006 1.008037466562e+006 1.008463847320e+006 1.008082538192e+006 1.008460902017e+006 1.008075544521e+006 1.008266050917e+006 1.007949739498e+006 1.008246763871e+006 1.007936605050e+006 1.007958360854e+006 1.008653425746e+006 1.008067384243e+006 1.007857878282e+006 1.008672642985e+006 1.008653184674e+006 1.008564463099e+006 1.008441003601e+006 1.008348093946e+006 1.008477435108e+006 1.008448376503e+006 1.008411537861e+006 1.008029846392e+006 1.008257743508e+006 1.007889160559e+006 1.008286451523e+006 1.008078444046e+006 1.007959105848e+006 1.008092608712e+006 1.008066515593e+006 1.008050560465e+006 1.008675453060e+006 1.008744040650e+006 1.008154410015e+006 1.008562047698e+006 1.008182709140e+006 1.008304080529e+006 1.008556802486e+006 1.000000000000e+006 1.000000000000e+006 1.000441057661e+006 1.008591483057e+006 1.008876714674e+006 1.008140025412e+006 1.008698186160e+006 1.008693315330e+006 1.007946104591e+006 1.008804197200e+006 1.008302169939e+006 1.008766329657e+006 1.008079659784e+006 1.007977859154e+006 1.007957771570e+006 1.007924109456e+006 1.008199349341e+006 1.008083755751e+006 1.008627967961e+006 1.008824765215e+006 1.008307602572e+006 1.008011786430e+006 1.008057697564e+006 1.008645750212e+006 1.008572669332e+006 1.008615259743e+006 1.006015968334e+006 1.006013325366e+006 1.008903272410e+006 1.007868816192e+006 1.007869172616e+006 1.008133533369e+006 1.008214234382e+006 1.008706993540e+006 1.008038696425e+006 1.008026270211e+006 1.007828003244e+006 1.008249556039e+006 1.008353889874e+006 1.008037843811e+006 1.008277920253e+006 1.008008033832e+006 1.001948440529e+006 1.001442520532e+006 1.008792582377e+006 1.008515731053e+006 1.001969577836e+006 1.008779274560e+006 1.008295580047e+006 1.008793215387e+006 1.008384622987e+006 1.008342530966e+006 1.000891031597e+006 1.008838430585e+006 1.008729050749e+006 1.007894337549e+006 1.008105966408e+006 1.008840524681e+006 1.008003192770e+006 1.008001689886e+006 1.008874223244e+006 1.008483459042e+006 1.008360786961e+006 1.008206812136e+006 1.008772072920e+006 1.008627450634e+006 1.007930774247e+006 1.008273464117e+006 1.008372861896e+006 1.008501482364e+006 1.008161429696e+006 1.008074333312e+006 1.008812170628e+006 1.008549328932e+006 1.008824814980e+006 1.008794343690e+006 1.008517395867e+006 1.007877899839e+006 1.007949552461e+006 1.002264192988e+006 1.008606449258e+006 1.001168828144e+006 1.008096317805e+006 1.007834397485e+006 1.008294252007e+006 1.008066510914e+006 1.008513480214e+006 1.008871536954e+006 1.008534685295e+006 1.008618848692e+006 1.008767324828e+006 1.008743767377e+006 1.008773700532e+006 1.008826096878e+006 1.008723745967e+006 1.002098013944e+006 1.002358085135e+006 1.001221736142e+006 1.002614606407e+006 1.008592023261e+006 1.002389420462e+006 1.002333678654e+006 1.007940938259e+006 1.008586913140e+006 1.008718426566e+006 1.008787483298e+006 1.002423362465e+006 1.008178974604e+006 1.008208538452e+006 1.007872201020e+006 1.007871953813e+006 1.008121610215e+006 1.008118126341e+006 1.008812796524e+006 1.008601875202e+006 1.007879378220e+006 1.007882572382e+006 1.007848946362e+006 1.007866353328e+006 1.008588338384e+006 1.008689612303e+006 
        </DataArray>
        <DataArray type="Float64" Name="MEAN_PRESSURE" format="ascii">