<?xml version="1.0"?>
<VTKFile type="UnstructuredGrid" version="0.1" byte_order="LittleEndian">
  <UnstructuredGrid>
    <Piece NumberOfPoints="963" NumberOfCells="1758">
      <Points>
        <DataArray type="Float64" NumberOfComponents="3" format="ascii">
          1.600262034769e+002 1.257989505921e+001 0.000000000000e+000
          1.635346199106e+002 2.000000000000e+001 0.000000000000e+000
          1.554515002484e+002 2.000000000000e+001 0.000000000000e+000
          3.459306441575e+000 1.667621982453e+001 0.000000000000e+000
          3.062266634850e+000 1.705413688405e+001 0.000000000000e+000
          2.873380769063e+000 1.650527725632e+001 0.000000000000e+000
          1.514088444034e+000 1.865189448105e+001 0.000000000000e+000
          1.967902677551e+000 1.834103489750e+001 0.000000000000e+000
          2.034564522234e+000 1.890806711991e+001 0.000000000000e+000
          2.478275273162e+000 1.702762299110e+001 0.000000000000e+000
          2.952621433467e+000 1.774357373580e+001 0.000000000000e+000
          2.237893542067e+000 1.782457469610e+001 0.000000000000e+000
          3.313583922780e+000 3.274674552047e+000 0.000000000000e+000
          2.561432712787e+000 3.156040447793e+000 0.000000000000e+000
          3.047531989640e+000 2.714594415171e+000 0.000000000000e+000
          2.750804692284e+000 3.936058190693e+000 0.000000000000e+000
          2.599039179818e+000 2.451529939148e+000 0.000000000000e+000
          3.139686649742e+000 2.186924052088e+000 0.000000000000e+000
          1.919984553221e+000 3.358010194268e+000 0.000000000000e+000
          1.960900304591e+000 2.773319745251e+000 0.000000000000e+000
          1.894565400391e+000 1.733316857565e+001 0.000000000000e+000
          0.000000000000e+000 1.538461538461e+001 0.000000000000e+000
          5.816229249735e-001 1.567919247147e+001 0.000000000000e+000
          0.000000000000e+000 1.589743589743e+001 0.000000000000e+000
          9.766405669483e+001 2.000000000000e+001 0.000000000000e+000
          1.010672711393e+002 1.500000000000e+001 0.000000000000e+000
          1.029329279907e+002 2.000000000000e+001 0.000000000000e+000
          9.588503785413e+001 1.500000000000e+001 0.000000000000e+000
          1.039231647117e+002 1.000000000000e+001 0.000000000000e+000
          9.860830811271e+001 1.000000000000e+001 0.000000000000e+000
          1.010672711397e+002 5.000000000000e+000 0.000000000000e+000
          9.766405669557e+001 0.000000000000e+000 0.000000000000e+000
          1.029329279915e+002 0.000000000000e+000 0.000000000000e+000
          9.588503785449e+001 5.000000000000e+000 0.000000000000e+000
          7.892434178002e+001 2.000000000000e+001 0.000000000000e+000
          8.173808356948e+001 1.500000000000e+001 0.000000000000e+000
          8.328058896910e+001 2.000000000000e+001 0.000000000000e+000
          7.679274808893e+001 1.514423393202e+001 0.000000000000e+000
          7.970503892166e+001 1.000000000000e+001 0.000000000000e+000
          8.409930620613e+001 1.000000000000e+001 0.000000000000e+000
          8.173808356980e+001 5.000000000000e+000 0.000000000000e+000
          7.892434178065e+001 0.000000000000e+000 0.000000000000e+000
          8.328058896976e+001 0.000000000000e+000 0.000000000000e+000
          7.679274808925e+001 4.855766067979e+000 0.000000000000e+000
          1.084583939765e+002 2.000000000000e+001 0.000000000000e+000
          1.122011528880e+002 1.500000000000e+001 0.000000000000e+000
          1.142529496098e+002 2.000000000000e+001 0.000000000000e+000
          1.065018792644e+002 1.500000000000e+001 0.000000000000e+000
          1.153419838410e+002 1.000000000000e+001 0.000000000000e+000
          1.094968549120e+002 1.000000000000e+001 0.000000000000e+000
          1.122011528884e+002 5.000000000000e+000 0.000000000000e+000
          1.084583939773e+002 0.000000000000e+000 0.000000000000e+000
          1.142529496106e+002 0.000000000000e+000 0.000000000000e+000
          1.065018792648e+002 5.000000000000e+000 0.000000000000e+000
          1.181779812237e+002 1.500000000000e+001 0.000000000000e+000
          1.203297004775e+002 2.000000000000e+001 0.000000000000e+000
          1.214717707847e+002 1.000000000000e+001 0.000000000000e+000
          1.181779812242e+002 5.000000000000e+000 0.000000000000e+000
          1.203297004784e+002 0.000000000000e+000 0.000000000000e+000
          7.477039199538e+001 2.000000000000e+001 0.000000000000e+000
          7.551483469771e+001 1.000000000000e+001 0.000000000000e+000
          7.296959467356e+001 1.385646386579e+001 0.000000000000e+000
          7.477039199599e+001 0.000000000000e+000 0.000000000000e+000
          7.296959467379e+001 6.143536134207e+000 0.000000000000e+000
          6.918477198508e+001 1.366665532880e+001 0.000000000000e+000
          6.746477463053e+001 1.000000000000e+001 0.000000000000e+000
          7.151921701478e+001 1.000000000000e+001 0.000000000000e+000
          6.918477198529e+001 6.333344671202e+000 0.000000000000e+000
          9.263986346551e+001 2.000000000000e+001 0.000000000000e+000
          9.094345943471e+001 1.500000000000e+001 0.000000000000e+000
          9.354026529380e+001 1.000000000000e+001 0.000000000000e+000
          9.263986346623e+001 0.000000000000e+000 0.000000000000e+000
          9.094345943506e+001 5.000000000000e+000 0.000000000000e+000
          1.244344522558e+002 1.503312574389e+001 0.000000000000e+000
          1.267023895482e+002 2.000000000000e+001 0.000000000000e+000
          1.285510028831e+002 1.020485663255e+001 0.000000000000e+000
          1.244344522563e+002 5.033125743893e+000 0.000000000000e+000
          1.267023895491e+002 0.000000000000e+000 0.000000000000e+000
          8.623136018348e+001 1.500000000000e+001 0.000000000000e+000
          8.784898578901e+001 2.000000000000e+001 0.000000000000e+000
          8.870757443665e+001 1.000000000000e+001 0.000000000000e+000
          8.623136018382e+001 5.000000000000e+000 0.000000000000e+000
          8.784898578969e+001 0.000000000000e+000 0.000000000000e+000
          4.872472752737e+000 0.000000000000e+000 0.000000000000e+000
          4.204479229380e+000 6.412840757122e-001 0.000000000000e+000
          4.157376851380e+000 0.000000000000e+000 0.000000000000e+000
          5.192892237051e+000 7.280355562789e-001 0.000000000000e+000
          1.306630304579e+000 6.212843344151e-001 0.000000000000e+000
          1.050228457081e+000 0.000000000000e+000 0.000000000000e+000
          1.614006202528e+000 0.000000000000e+000 0.000000000000e+000
          1.266763055794e+001 1.554696422866e+001 0.000000000000e+000
          1.263589100638e+001 1.657720348306e+001 0.000000000000e+000
          1.174268578662e+001 1.633018318031e+001 0.000000000000e+000
          6.588835695415e+000 7.505681085529e+000 0.000000000000e+000
          6.456871838389e+000 6.658671683861e+000 0.000000000000e+000
          7.208099140752e+000 7.038822846307e+000 0.000000000000e+000
          4.412623338166e+000 9.138856431549e+000 0.000000000000e+000
          4.024185797397e+000 8.708923235630e+000 0.000000000000e+000
          4.601447447338e+000 8.507292699647e+000 0.000000000000e+000
          5.325995059827e-001 6.308307298123e+000 0.000000000000e+000
          0.000000000000e+000 6.666666666655e+000 0.000000000000e+000
          0.000000000000e+000 6.153846153835e+000 0.000000000000e+000
          3.986461521768e+000 8.146114708182e+000 0.000000000000e+000
          2.411603373059e+000 6.510912162016e+000 0.000000000000e+000
          1.807525763324e+000 6.938080373464e+000 0.000000000000e+000
          1.686779352680e+000 6.178928843543e+000 0.000000000000e+000
          2.510760620997e+000 7.229076682239e+000 0.000000000000e+000
          3.166991983438e+000 6.906135870389e+000 0.000000000000e+000
          3.452788915829e+000 6.276851216781e+000 0.000000000000e+000
          3.340122000742e+000 5.656365440432e+000 0.000000000000e+000
          4.047936562877e+000 5.873561587395e+000 0.000000000000e+000
          1.802463974828e+000 1.292744708026e+001 0.000000000000e+000
          1.383967161336e+000 1.330299552906e+001 0.000000000000e+000
          1.329690820161e+000 1.266495373033e+001 0.000000000000e+000
          2.267922292389e+000 1.431116835808e+001 0.000000000000e+000
          2.854613987538e+000 1.466581611369e+001 0.000000000000e+000
          2.339869278674e+000 1.493776402241e+001 0.000000000000e+000
          4.690956878046e+000 3.115726773737e+000 0.000000000000e+000
          4.014773718330e+000 2.850429494150e+000 0.000000000000e+000
          4.643493383296e+000 2.293565471327e+000 0.000000000000e+000
          5.186083944243e+000 1.661927139510e+000 0.000000000000e+000
          5.452965511439e+000 2.679881546544e+000 0.000000000000e+000
          5.360460104304e+000 3.539902157655e+000 0.000000000000e+000
          6.197986304192e+000 3.115706366113e+000 0.000000000000e+000
          7.929356606585e-001 1.634705420870e+001 0.000000000000e+000
          1.222819867503e+000 1.599517159419e+001 0.000000000000e+000
          1.215723647926e+000 1.546209040954e+001 0.000000000000e+000
          1.770601276021e+000 1.521217632514e+001 0.000000000000e+000
          1.242830150061e+000 1.493919370237e+001 0.000000000000e+000
          1.166444124506e+000 4.610115997312e+000 0.000000000000e+000
          1.851620547934e+000 4.486892013458e+000 0.000000000000e+000
          1.494152702314e+000 5.145235789232e+000 0.000000000000e+000
          1.353088107040e+000 4.090803091641e+000 0.000000000000e+000
          3.802567455935e+000 5.084697985980e+000 0.000000000000e+000
          1.014840185783e+000 5.494768572296e+000 0.000000000000e+000
          8.831064584820e-001 5.109311190608e+000 0.000000000000e+000
          1.727903958959e+000 1.618384478933e+001 0.000000000000e+000
          1.343261525342e+000 1.651800241408e+001 0.000000000000e+000
          3.308120627291e+000 8.593311644828e+000 0.000000000000e+000
[...]
      <PointData Scalars="LIQUID_PRESSURE">
        <DataArray type="Float64" Name="LIQUID_PRESSURE" format="ascii">
          9.995904373374e+005 1.002841881790e+006 1.000146750383e+006 1.000245823232e+006 1.000408312079e+006 1.000621750666e+006 1.000561896902e+006 1.001222402073e+006 1.001276256596e+006 1.001244604887e+006 1.000509775321e+006 1.001315542610e+006 1.000166240916e+006 1.001076281733e+006 1.000384945169e+006 1.000717982684e+006 1.001060415211e+006 1.000248671664e+006 1.001192438618e+006 1.001270993172e+006 1.001090566142e+006 1.001138841782e+006 1.000672041720e+006 1.001129037155e+006 1.000476389002e+006 1.000473415459e+006 1.000455329095e+006 1.000472369384e+006 1.000450444996e+006 1.000474851365e+006 1.000473104191e+006 1.000476204692e+006 1.000455909975e+006 1.000472499338e+006 1.000561329258e+006 1.000529516025e+006 1.000534216284e+006 1.000561791484e+006 1.000572578237e+006 1.000517214846e+006 1.000529647062e+006 1.000561249603e+006 1.000534268860e+006 1.000561139889e+006 1.000441340927e+006 1.000416646132e+006 1.000404071200e+006 1.000436872901e+006 1.000397991170e+006 1.000437227140e+006 1.000417862737e+006 1.000439294174e+006 1.000406480586e+006 1.000436841805e+006 1.000407403827e+006 1.000377312890e+006 1.000378525550e+006 1.000401151674e+006 1.000377180461e+006 1.000580458617e+006 1.000546042261e+006 1.000555882219e+006 1.000580737193e+006 1.000557409847e+006 1.000520738637e+006 1.000566277387e+006 1.000647152133e+006 1.000520446631e+006 1.000526170370e+006 1.000497710048e+006 1.000515706489e+006 1.000526199527e+006 1.000497669671e+006 1.000359093258e+006 1.000373855999e+006 1.000325819279e+006 1.000372912601e+006 1.000354380132e+006 1.000553366982e+006 1.000494266111e+006 1.000503204385e+006 1.000553364325e+006 1.000494249254e+006 1.000920094527e+006 1.001151876800e+006 1.001018639086e+006 1.000439043404e+006 1.000297465271e+006 1.000189749599e+006 1.000769284912e+006 1.000784268571e+006 1.000566489600e+006 1.000654074953e+006 1.001291342317e+006 1.001251314239e+006 1.000661250605e+006 1.001252553053e+006 1.000944809690e+006 1.001060060146e+006 1.000677487900e+006 1.001180459798e+006 1.001138701508e+006 1.000912486425e+006 1.001213852400e+006 1.001031205217e+006 1.000885807171e+006 1.001050831219e+006 1.000196845293e+006 1.000231487355e+006 1.000173735447e+006 1.001032712613e+006 1.000980344908e+006 1.000349836637e+006 1.000293192774e+006 1.001334541676e+006 1.000622564852e+006 1.001297366541e+006 1.000995127434e+006 1.000948565420e+006 1.001038341248e+006 1.000427625284e+006 1.000240862953e+006 1.000200608214e+006 1.000927225023e+006 1.000445111038e+006 1.000172939799e+006 1.000173490957e+006 1.000935788097e+006 1.000184188392e+006 1.000180844219e+006 1.000998017743e+006 1.000492348641e+006 1.000270521499e+006 1.000573196598e+006 1.000198360214e+006 1.000297125468e+006 1.000818032395e+006 1.000242473469e+006 1.000173888485e+006 1.000864434063e+006 1.000183494550e+006 1.000371317928e+006 1.000420664876e+006 1.000231415982e+006 1.000442017208e+006 1.000262037904e+006 1.000342774063e+006 1.000454907725e+006 1.000408193278e+006 1.000558723486e+006 1.001048559287e+006 1.001010156660e+006 1.001092005582e+006 1.000208179187e+006 1.000792914314e+006 1.001317535560e+006 1.000957349059e+006 1.000915559071e+006 1.000436139043e+006 1.000228346633e+006 1.000658083389e+006 1.000456646243e+006 1.000312208302e+006 1.000288855694e+006 1.000326807628e+006 1.000873461520e+006 1.001068257858e+006 1.000998839157e+006 1.001077791336e+006 1.001291595999e+006 1.000623325080e+006 1.001192110896e+006 1.000477459336e+006 1.000196844262e+006 1.000887284006e+006 1.000254463530e+006 1.000767937389e+006 1.000972626467e+006 1.001089203105e+006 1.000156688162e+006 1.001027962972e+006 1.000970580790e+006 1.000449995149e+006 1.001244829321e+006 1.000401749684e+006 1.000568255813e+006 1.000212283467e+006 1.000273903389e+006 1.000911697737e+006 1.001293347488e+006 1.000708747232e+006 1.001097658621e+006 1.001312529676e+006 1.001299929044e+006 1.000230795690e+006 1.001290357001e+006 1.000475090360e+006 1.001113270208e+006 1.000304364138e+006 1.000255915593e+006 1.001053469614e+006 1.001258977170e+006 1.000849140215e+006 1.000190188315e+006 1.000172179465e+006 1.000183399771e+006 1.000686247072e+006 1.000209936884e+006 1.000259825774e+006 1.000335792569e+006 1.000196570208e+006 1.000642161874e+006 1.001279955576e+006 1.000706833661e+006 1.000702021449e+006 1.000983999429e+006 1.001294507880e+006 1.000188206665e+006 1.000676866875e+006 1.000262836444e+006 1.001188532618e+006 1.000528300767e+006 1.001283345704e+006 1.000202862823e+006 1.000574712960e+006 1.000220863180e+006 1.001025422771e+006 1.001179476459e+006 1.000305577156e+006 1.001230346757e+006 1.000174784072e+006 1.000228065347e+006 1.000812266518e+006 1.000279465378e+006 1.000616596812e+006 1.000497683914e+006 1.001007181337e+006 1.000989706885e+006 1.000150149947e+006 1.001375165828e+006 1.000708778956e+006 1.000685302844e+006 1.000689847801e+006 1.001178887623e+006 1.001131396003e+006 1.001164488872e+006 1.001179348022e+006 1.000813037381e+006 1.000967399762e+006 1.000866162913e+006 1.000186231470e+006 1.000622317940e+006 1.001000077156e+006 1.001001217777e+006 1.001045022852e+006 1.001065290268e+006 1.000931658775e+006 1.001059923422e+006 1.000869002844e+006 1.001056780175e+006 1.000982142845e+006 1.001084973569e+006 1.001057982602e+006 1.000516897271e+006 1.000589146246e+006 1.000738574713e+006 1.000710961429e+006 1.000708100457e+006 1.000534738893e+006 1.000561241711e+006 1.000531015801e+006 1.000774422411e+006 1.000718127037e+006 1.000723941893e+006 1.000541370158e+006 1.000598838333e+006 1.000518400854e+006 1.000674020367e+006 1.000861826609e+006 1.000683707857e+006 1.000555777650e+006 1.000518608878e+006 1.000603635312e+006 1.000661113548e+006 1.000861147604e+006 1.000678087612e+006 1.000557710321e+006 1.000656234509e+006 1.000704144038e+006 1.000678669063e+006 1.000685006477e+006 1.000653436187e+006 1.000666795515e+006 1.000704149783e+006 1.000656226610e+006 1.000678651862e+006 1.000684976765e+006 1.000653439856e+006 1.000666783378e+006 1.000579273363e+006 1.000818289455e+006 1.000610988919e+006 1.000681320471e+006 1.000568208770e+006 1.000638472256e+006 1.000818284664e+006 1.000579327103e+006 1.000610960699e+006 1.000681306036e+006 1.000568211610e+006 1.000638473657e+006 1.000797892090e+006 1.000712492981e+006 1.000562369130e+006 1.000622376613e+006 1.000712454909e+006 1.000797854937e+006 1.000562315928e+006 1.000621995717e+006 1.000766839159e+006 1.000541985479e+006 1.000862202565e+006 1.000593193836e+006 1.000808839915e+006 1.000750844263e+006 1.000541912741e+006 1.000766829887e+006 1.000862352638e+006 1.000593220999e+006 1.000808847935e+006 1.000750840883e+006 1.000536936386e+006 1.000502627668e+006 1.000599416799e+006 1.000535829796e+006 1.000502889534e+006 1.000599054466e+006 1.000699265124e+006 1.000773163372e+006 1.000679638275e+006 1.000699237376e+006 1.000773189475e+006 1.000679653537e+006 1.000561040910e+006 1.000561242615e+006 1.000756432117e+006 1.000659881222e+006 1.000543358249e+006 1.000572863507e+006 1.000755709985e+006 1.000573035124e+006 1.000717714799e+006 1.000642217633e+006 1.000659330821e+006 1.000690497264e+006 1.000717708537e+006 1.000690487874e+006 1.000585844583e+006 1.000688039256e+006 1.000587480213e+006 1.000702844567e+006 1.000822168253e+006 1.000821881196e+006 1.000702756869e+006 1.000757360809e+006 1.000535902453e+006 1.000535899300e+006 1.000706631053e+006 1.000600077606e+006 1.000706643551e+006 1.000723628470e+006 1.000689968509e+006 1.000723611726e+006 1.000709070360e+006 1.000709030012e+006 1.000651959370e+006 1.000742079313e+006 1.000742082693e+006 1.000702558415e+006 1.000565952025e+006 1.000701841217e+006 1.000655757488e+006 1.000561631304e+006 1.000583907290e+006 1.000556612260e+006 1.000624424784e+006 1.000493506852e+006 1.000619260677e+006 1.000486893365e+006 1.000406273469e+006 1.000440259418e+006 1.000751985726e+006 1.000870930869e+006 1.000568018595e+006 1.000900814107e+006 1.001318312352e+006 1.000670636318e+006 1.001264886445e+006 1.000950642283e+006 1.000596003525e+006 1.000782083374e+006 1.000810296082e+006 1.000378901208e+006 1.000921428350e+006 9.998794564115e+005 1.000432499188e+006 1.001189175389e+006 1.000527168090e+006 1.001029166655e+006 1.001152459430e+006 1.000713704387e+006 1.001076702709e+006 1.000141781965e+006 1.000831819248e+006 1.000705712149e+006 1.001308481911e+006 1.000906999713e+006 1.000471553817e+006 1.000483819017e+006 1.000742624060e+006 1.001288751770e+006 1.000421221852e+006 1.001194267440e+006 1.000775718240e+006 1.001114033872e+006 1.000390406940e+006 1.000434148867e+006 1.000445675756e+006 1.000991121082e+006 1.000405869255e+006 1.001152006684e+006 1.000781558879e+006 1.000952311027e+006 1.001141105999e+006 1.000898302949e+006 1.000569598203e+006 1.000928830136e+006 1.000572001926e+006 1.000194629172e+006 1.000797072371e+006 1.001182424083e+006 1.000721591577e+006 1.000297187624e+006 1.000296390391e+006 1.000625108939e+006 1.000683542851e+006 1.000679911975e+006 1.000981876514e+006 1.000982173925e+006 1.001168606988e+006 1.000802229701e+006 1.000942106077e+006 1.000336291991e+006 1.001220967809e+006 1.000250230258e+006 1.000776471231e+006 1.000687161406e+006 1.000778209978e+006 1.000838977139e+006 1.000207597564e+006 1.000373754894e+006 1.001160870783e+006 1.000242980065e+006 1.000317099444e+006 1.000919511712e+006 1.000914149080e+006 1.000354498857e+006 1.000405010129e+006 1.000366581038e+006 1.000668109316e+006 1.000359163696e+006 1.000865018833e+006 1.000956190614e+006 1.000916139758e+006 1.000369101105e+006 1.000568000561e+006 1.001091058839e+006 1.001197033508e+006 1.000849023914e+006 1.000466188981e+006 1.000524345737e+006 1.000272326893e+006 1.000182191097e+006 1.000921084876e+006 1.001191910954e+006 1.000128899685e+006 1.000213602853e+006 1.000926876718e+006 1.001318356335e+006 1.000799276117e+006 1.000272650888e+006 1.000996908542e+006 1.001127771394e+006 1.000781716278e+006 1.000390435739e+006 1.001216423569e+006 1.000658308075e+006 1.000754800940e+006 1.000668399831e+006 1.000678292226e+006 1.000198569603e+006 1.000365283577e+006 1.000886758389e+006 1.001235952152e+006 1.000683983888e+006 1.000235081858e+006 1.000542137220e+006 1.000944609543e+006 1.000951396662e+006 1.001245153297e+006 1.000419675686e+006 1.000273658155e+006 1.001143695973e+006 1.001112559084e+006 1.001115102330e+006 1.000764638352e+006 1.000173383765e+006 1.000769257602e+006 1.001236448544e+006 1.000665437845e+006 1.001227899123e+006 1.001232630279e+006 1.000942387260e+006 1.000258281322e+006 1.001192679163e+006 1.001206458897e+006 1.000167666885e+006 1.000362881913e+006 1.000967028351e+006 1.000701441279e+006 1.000427313739e+006 1.000508344093e+006 1.001203989895e+006 1.000693094994e+006 1.000884757975e+006 1.001241824065e+006 1.000400015106e+006 1.000623795042e+006 1.000927980312e+006 1.000480522840e+006 1.000568062452e+006 1.001043274512e+006 1.000371439309e+006 1.000491600249e+006 1.000394334486e+006 1.001248210717e+006 1.001327156781e+006 1.000248868768e+006 1.000324834697e+006 1.000449243850e+006 1.001012293739e+006 1.000683758708e+006 1.000718136733e+006 1.001292501918e+006 1.001032265119e+006 1.000701012899e+006 1.000831156019e+006 1.001172402488e+006 1.001199001649e+006 1.000890864600e+006 1.000826022204e+006 1.000410436652e+006 1.000638838351e+006 1.000339819870e+006 1.001320137110e+006 1.000125119668e+006 1.000986770988e+006 1.000800260116e+006 1.000468214302e+006 1.000300069108e+006 1.001075702908e+006 1.000265128324e+006 1.000157119710e+006 1.000605224089e+006 1.001126096972e+006 1.000642016848e+006 1.001026243114e+006 1.000803571446e+006 1.000614964969e+006 1.001181732125e+006 1.000420700289e+006 1.000117705424e+006 1.001162805914e+006 1.000555310838e+006 1.001228669303e+006 1.000342993395e+006 1.001115315113e+006 1.000694654591e+006 1.000162153145e+006 1.001124589881e+006 1.000494449083e+006 1.001198892544e+006 1.000280043790e+006 1.000701717517e+006 1.000924163676e+006 1.000251060680e+006 1.000276495944e+006 1.000996189098e+006 1.001542920219e+006 1.001107769589e+006 1.000931177507e+006 1.000507918574e+006 1.000775293090e+006 1.001204300352e+006 1.000973208974e+006 1.000358033000e+006 1.001183201107e+006 1.000542242636e+006 1.000206523154e+006 1.001112217089e+006 1.000596426780e+006 1.000704425294e+006 1.000710095322e+006 1.000774502792e+006 1.001176062096e+006 1.000741585701e+006 1.000568441999e+006 1.001025337940e+006 1.000219708833e+006 1.000982395881e+006 1.000434190203e+006 1.001024133298e+006 1.000555831424e+006 1.000902136687e+006 1.000566798247e+006 1.000504738730e+006 9.988060866422e+005 1.000042435977e+006 1.000955906433e+006 1.000190842485e+006 1.000277954951e+006 1.000848657826e+006 1.000309267819e+006 1.000619308786e+006 1.000682899247e+006 1.000748577710e+006 1.000680576234e+006 1.000744095725e+006 1.000224879442e+006 1.000515343777e+006 1.000249829504e+006 1.000182624517e+006 1.000543276381e+006 1.000727923750e+006 1.000806481309e+006 1.000727587733e+006 1.001121617670e+006 1.000643742053e+006 1.000485610991e+006 1.000766197402e+006 1.000528977940e+006 1.000216696816e+006 1.001087210432e+006 1.001241229033e+006 1.000203462794e+006 1.000126869528e+006 1.001273592143e+006 1.000154546167e+006 1.000442941777e+006 1.001024361003e+006 1.001249283842e+006 1.000902236821e+006 1.000959964453e+006 1.001252704628e+006 1.000857698354e+006 1.001072918569e+006 1.000989595383e+006 1.000910840773e+006 1.000394589320e+006 1.000461725057e+006 1.000460263695e+006 1.001023179500e+006 1.000956086169e+006 1.000417438277e+006 1.000977201796e+006 1.000959291785e+006 1.001043323731e+006 1.001177688409e+006 1.000817862071e+006 1.000287306308e+006 1.000515534103e+006 1.000454037077e+006 1.001072840247e+006 1.001201340183e+006 1.001134030824e+006 1.000496142552e+006 1.000970349358e+006 1.000968568374e+006 1.001059919757e+006 1.000840604904e+006 1.000503678952e+006 1.000694970258e+006 1.000768865890e+006 1.000902771842e+006 1.000761236320e+006 1.000688619695e+006 1.000916354843e+006 1.000701657267e+006 1.000664382610e+006 1.000684505550e+006 1.000530825145e+006 1.000645397358e+006 1.000670365859e+006 1.000808028980e+006 1.000583287015e+006 1.000750148257e+006 1.000576696984e+006 1.000797913204e+006 1.000681990795e+006 1.000804302030e+006 1.000814821436e+006 1.000804789636e+006 1.000806271786e+006 1.000666445779e+006 1.000625781234e+006 1.000496998801e+006 1.000626412478e+006 1.000499688577e+006 1.000967588007e+006 1.000678513943e+006 1.000871212898e+006 1.000684234834e+006 1.000880043559e+006 1.000721344076e+006 1.000642434887e+006 1.000726711825e+006 1.000658801248e+006 1.000652432702e+006 1.000720865879e+006 1.000724532373e+006 1.000629080310e+006 1.000748583843e+006 1.000860765623e+006 1.000746483371e+006 1.000889117719e+006 1.000541020884e+006 1.000607355454e+006 1.000534237743e+006 1.000595352086e+006 1.000840124392e+006 1.000764620312e+006 1.000840484769e+006 1.000765126687e+006 1.000726310545e+006 1.000483658619e+006 1.000945040365e+006 1.000901156765e+006 1.000738443871e+006 1.000660501141e+006 1.000485807976e+006 1.000727725364e+006 1.000939872494e+006 1.000901947377e+006 1.000739605387e+006 1.000661933777e+006 1.000605726338e+006 1.000535821807e+006 1.000732853646e+006 1.000606826381e+006 1.000529519569e+006 1.000736679890e+006 1.000987860896e+006 1.000814227353e+006 1.000893362012e+006 1.000983607042e+006 1.000792572192e+006 1.000894146102e+006 1.000383446576e+006 1.000767726585e+006 1.000400886956e+006 1.000384688360e+006 1.000803952303e+006 1.000419755594e+006 1.001054004061e+006 1.000436903007e+006 1.001023537574e+006 1.000434107174e+006 1.000569924910e+006 1.000926862768e+006 1.000570153388e+006 1.000921671092e+006 1.000616681607e+006 1.000756469786e+006 1.000708596185e+006 1.000618842831e+006 1.000756085541e+006 1.000708862188e+006 1.000577871826e+006 1.000813031993e+006 1.000577324032e+006 1.000812416118e+006 1.000845418451e+006 1.000849147872e+006 1.000776955521e+006 1.000775906472e+006 1.000462816820e+006 1.000453271852e+006 1.000444231578e+006 1.000961242124e+006 1.000403761470e+006 1.000736404538e+006 1.000935242105e+006 1.000908589053e+006 1.000478361075e+006 1.000488883928e+006 1.000505063963e+006 1.000931372296e+006 1.000571486159e+006 1.000932510667e+006 1.000569098748e+006 1.000755293076e+006 1.000441685947e+006 1.000738642492e+006 1.000433353130e+006 1.000430012473e+006 1.001021428000e+006 1.000536482951e+006 1.000236558096e+006 1.001107259163e+006 1.001081061439e+006 1.000978779466e+006 1.000906935360e+006 1.000799245205e+006 1.000948693642e+006 1.000924001076e+006 1.000881597336e+006 1.000477396657e+006 1.000698613894e+006 1.000366254635e+006 1.000754384703e+006 1.000533747869e+006 1.000399734933e+006 1.000543410474e+006 1.000484671217e+006 1.000530402596e+006 1.001104279528e+006 1.001125974540e+006 1.000549529679e+006 1.000972934468e+006 1.000539960551e+006 1.000723451663e+006 1.000984309430e+006 1.000000000000e+006 1.000000000000e+006 1.000415062186e+006 1.001002080456e+006 1.001224372865e+006 1.000475986761e+006 1.001056158407e+006 1.001062507636e+006 1.000282839529e+006 1.001173399981e+006 1.000674868864e+006 1.001123090692e+006 1.000455460385e+006 1.000398936922e+006 1.000383931995e+006 1.000247445322e+006 1.000584745419e+006 1.000474707478e+006 1.001068680914e+006 1.001206584651e+006 1.000710946161e+006 1.000429966987e+006 1.000452503062e+006 1.001078676026e+006 1.001043380982e+006 1.001013308810e+006 1.000580091900e+006 1.000577758522e+006 1.001229412456e+006 1.000657410338e+006 1.000657659477e+006 1.000534147642e+006 1.000615792344e+006 1.001070104628e+006 1.000490199346e+006 1.000375155018e+006 1.000217125831e+006 1.000572365067e+006 1.000820578314e+006 1.000480123214e+006 1.000714677507e+006 1.000390802525e+006 1.000330971029e+006 9.999754827164e+005 1.001167987145e+006 1.000935283695e+006 1.000459779212e+006 1.001131053232e+006 1.000728827630e+006 1.001141575360e+006 1.000835787840e+006 1.000733218532e+006 1.000760611099e+006 1.001162152661e+006 1.001041325746e+006 1.000242442673e+006 1.000551383856e+006 1.001197096591e+006 1.000697448399e+006 1.000696599050e+006 1.001227071215e+006 1.000899770058e+006 1.000746934182e+006 1.000511655143e+006 1.001147053749e+006 1.001022750774e+006 1.000273480659e+006 1.000631281573e+006 1.000706068317e+006 1.000911426024e+006 1.000544338249e+006 1.000464269878e+006 1.001161456655e+006 1.000940918453e+006 1.001161063342e+006 1.001185939938e+006 1.000930604634e+006 1.000223438902e+006 1.000367143379e+006 1.000361866338e+006 1.001054748759e+006 1.001770507665e+006 1.000534048540e+006 1.000213140160e+006 1.000716351337e+006 1.000435505162e+006 1.000974649045e+006 1.001260918792e+006 1.001026965534e+006 1.001016017546e+006 1.001103425306e+006 1.001069461856e+006 1.001086627617e+006 1.001175092292e+006 1.001082334685e+006 1.000518064161e+006 1.000230711000e+006 9.997502051473e+005 1.000342089718e+006 1.000980892284e+006 1.000285934695e+006 1.000908357446e+006 1.000353572689e+006 1.000991974497e+006 1.001045675503e+006 1.001172722442e+006 1.000320369959e+006 1.000537622166e+006 1.000585410015e+006 1.000654166108e+006 1.000653848044e+006 1.000756781571e+006 1.000752910984e+006 1.001151049283e+006 1.000999127014e+006 1.000522307417e+006 1.000527800081e+006 1.000530761160e+006 1.000544981319e+006 1.000986125126e+006 1.001021120204e+006 
        </DataArray>
        <DataArray type="Float64" Name="MEAN_PRESSURE" format="ascii">