<?xml version="1.0"?>
<VTKFile type="UnstructuredGrid" version="0.1" byte_order="LittleEndian">
  <UnstructuredGrid>
    <Piece NumberOfPoints="963" NumberOfCells="1758">
      <Points>
        <DataArray type="Float64" NumberOfComponents="3" format="ascii">
          1.600262034769e+002 1.257989505921e+001 0.000000000000e+000
          1.635346199106e+002 2.000000000000e+001 0.000000000000e+000
          1.554515002484e+002 2.000000000000e+001 0.000000000000e+000
          3.459306441575e+000 1.667621982453e+001 0.000000000000e+000
          3.062266634850e+000 1.705413688405e+001 0.000000000000e+000
          2.873380769063e+000 1.650527725632e+001 0.000000000000e+000
          1.514088444034e+000 1.865189448105e+001 0.000000000000e+000
          1.967902677551e+000 1.834103489750e+001 0.000000000000e+000
          2.034564522234e+000 1.890806711991e+001 0.000000000000e+000
          2.478275273162e+000 1.702762299110e+001 0.000000000000e+000
          2.952621433467e+000 1.774357373580e+001 0.000000000000e+000
          2.237893542067e+000 1.782457469610e+001 0.000000000000e+000
          3.313583922780e+000 3.274674552047e+000 0.000000000000e+000
          2.561432712787e+000 3.156040447793e+000 0.000000000000e+000
          3.047531989640e+000 2.714594415171e+000 0.000000000000e+000
          2.750804692284e+000 3.936058190693e+000 0.000000000000e+000
          2.599039179818e+000 2.451529939148e+000 0.000000000000e+000
          3.139686649742e+000 2.186924052088e+000 0.000000000000e+000
          1.919984553221e+000 3.358010194268e+000 0.000000000000e+000
          1.960900304591e+000 2.773319745251e+000 0.000000000000e+000
          1.894565400391e+000 1.733316857565e+001 0.000000000000e+000
          0.000000000000e+000 1.538461538461e+001 0.000000000000e+000
          5.816229249735e-001 1.567919247147e+001 0.000000000000e+000
          0.000000000000e+000 1.589743589743e+001 0.000000000000e+000
          9.766405669483e+001 2.000000000000e+001 0.000000000000e+000
          1.010672711393e+002 1.500000000000e+001 0.000000000000e+000
          1.029329279907e+002 2.000000000000e+001 0.000000000000e+000
          9.588503785413e+001 1.500000000000e+001 0.000000000000e+000
          1.039231647117e+002 1.000000000000e+001 0.000000000000e+000
          9.860830811271e+001 1.000000000000e+001 0.000000000000e+000
          1.010672711397e+002 5.000000000000e+000 0.000000000000e+000
          9.766405669557e+001 0.000000000000e+000 0.000000000000e+000
          1.029329279915e+002 0.000000000000e+000 0.000000000000e+000
          9.588503785449e+001 5.000000000000e+000 0.000000000000e+000
          7.892434178002e+001 2.000000000000e+001 0.000000000000e+000
          8.173808356948e+001 1.500000000000e+001 0.000000000000e+000
          8.328058896910e+001 2.000000000000e+001 0.000000000000e+000
          7.679274808893e+001 1.514423393202e+001 0.000000000000e+000
          7.970503892166e+001 1.000000000000e+001 0.000000000000e+000
          8.409930620613e+001 1.000000000000e+001 0.000000000000e+000
          8.173808356980e+001 5.000000000000e+000 0.000000000000e+000
          7.892434178065e+001 0.000000000000e+000 0.000000000000e+000
          8.328058896976e+001 0.000000000000e+000 0.000000000000e+000
          7.679274808925e+001 4.855766067979e+000 0.000000000000e+000
          1.084583939765e+002 2.000000000000e+001 0.000000000000e+000
          1.122011528880e+002 1.500000000000e+001 0.000000000000e+000
          1.142529496098e+002 2.000000000000e+001 0.000000000000e+000
          1.065018792644e+002 1.500000000000e+001 0.000000000000e+000
          1.153419838410e+002 1.000000000000e+001 0.000000000000e+000
          1.094968549120e+002 1.000000000000e+001 0.000000000000e+000
          1.122011528884e+002 5.000000000000e+000 0.000000000000e+000
          1.084583939773e+002 0.000000000000e+000 0.000000000000e+000
          1.142529496106e+002 0.000000000000e+000 0.000000000000e+000
          1.065018792648e+002 5.000000000000e+000 0.000000000000e+000
          1.181779812237e+002 1.500000000000e+001 0.000000000000e+000
          1.203297004775e+002 2.000000000000e+001 0.000000000000e+000
          1.214717707847e+002 1.000000000000e+001 0.000000000000e+000
          1.181779812242e+002 5.000000000000e+000 0.000000000000e+000
          1.203297004784e+002 0.000000000000e+000 0.000000000000e+000
          7.477039199538e+001 2.000000000000e+001 0.000000000000e+000
          7.551483469771e+001 1.000000000000e+001 0.000000000000e+000
          7.296959467356e+001 1.385646386579e+001 0.000000000000e+000
          7.477039199599e+001 0.000000000000e+000 0.000000000000e+000
          7.296959467379e+001 6.143536134207e+000 0.000000000000e+000
          6.918477198508e+001 1.366665532880e+001 0.000000000000e+000
          6.746477463053e+001 1.000000000000e+001 0.000000000000e+000
          7.151921701478e+001 1.000000000000e+001 0.000000000000e+000
          6.918477198529e+001 6.333344671202e+000 0.000000000000e+000
          9.263986346551e+001 2.000000000000e+001 0.000000000000e+000
          9.094345943471e+001 1.500000000000e+001 0.000000000000e+000
          9.354026529380e+001 1.000000000000e+001 0.000000000000e+000
          9.263986346623e+001 0.000000000000e+000 0.000000000000e+000
          9.094345943506e+001 5.000000000000e+000 0.000000000000e+000
          1.244344522558e+002 1.503312574389e+001 0.000000000000e+000
          1.267023895482e+002 2.000000000000e+001 0.000000000000e+000
          1.285510028831e+002 1.020485663255e+001 0.000000000000e+000
          1.244344522563e+002 5.033125743893e+000 0.000000000000e+000
          1.267023895491e+002 0.000000000000e+000 0.000000000000e+000
          8.623136018348e+001 1.500000000000e+001 0.000000000000e+000
          8.784898578901e+001 2.000000000000e+001 0.000000000000e+000
          8.870757443665e+001 1.000000000000e+001 0.000000000000e+000
          8.623136018382e+001 5.000000000000e+000 0.000000000000e+000
          8.784898578969e+001 0.000000000000e+000 0.000000000000e+000
          4.872472752737e+000 0.000000000000e+000 0.000000000000e+000
          4.204479229380e+000 6.412840757122e-001 0.000000000000e+000
          4.157376851380e+000 0.000000000000e+000 0.000000000000e+000
          5.192892237051e+000 7.280355562789e-001 0.000000000000e+000
          1.306630304579e+000 6.212843344151e-001 0.000000000000e+000
          1.050228457081e+000 0.000000000000e+000 0.000000000000e+000
          1.614006202528e+000 0.000000000000e+000 0.000000000000e+000
          1.266763055794e+001 1.554696422866e+001 0.000000000000e+000
          1.263589100638e+001 1.657720348306e+001 0.000000000000e+000
          1.174268578662e+001 1.633018318031e+001 0.000000000000e+000
          6.588835695415e+000 7.505681085529e+000 0.000000000000e+000
          6.456871838389e+000 6.658671683861e+000 0.000000000000e+000
          7.208099140752e+000 7.038822846307e+000 0.000000000000e+000
          4.412623338166e+000 9.138856431549e+000 0.000000000000e+000
          4.024185797397e+000 8.708923235630e+000 0.000000000000e+000
          4.601447447338e+000 8.507292699647e+000 0.000000000000e+000
          5.325995059827e-001 6.308307298123e+000 0.000000000000e+000
          0.000000000000e+000 6.666666666655e+000 0.000000000000e+000
          0.000000000000e+000 6.153846153835e+000 0.000000000000e+000
          3.986461521768e+000 8.146114708182e+000 0.000000000000e+000
          2.411603373059e+000 6.510912162016e+000 0.000000000000e+000
          1.807525763324e+000 6.938080373464e+000 0.000000000000e+000
          1.686779352680e+000 6.178928843543e+000 0.000000000000e+000
          2.510760620997e+000 7.229076682239e+000 0.000000000000e+000
          3.166991983438e+000 6.906135870389e+000 0.000000000000e+000
          3.452788915829e+000 6.276851216781e+000 0.000000000000e+000
          3.340122000742e+000 5.656365440432e+000 0.000000000000e+000
          4.047936562877e+000 5.873561587395e+000 0.000000000000e+000
          1.802463974828e+000 1.292744708026e+001 0.000000000000e+000
          1.383967161336e+000 1.330299552906e+001 0.000000000000e+000
          1.329690820161e+000 1.266495373033e+001 0.000000000000e+000
          2.267922292389e+000 1.431116835808e+001 0.000000000000e+000
          2.854613987538e+000 1.466581611369e+001 0.000000000000e+000
          2.339869278674e+000 1.493776402241e+001 0.000000000000e+000
          4.690956878046e+000 3.115726773737e+000 0.000000000000e+000
          4.014773718330e+000 2.850429494150e+000 0.000000000000e+000
          4.643493383296e+000 2.293565471327e+000 0.000000000000e+000
          5.186083944243e+000 1.661927139510e+000 0.000000000000e+000
          5.452965511439e+000 2.679881546544e+000 0.000000000000e+000
          5.360460104304e+000 3.539902157655e+000 0.000000000000e+000
          6.197986304192e+000 3.115706366113e+000 0.000000000000e+000
          7.929356606585e-001 1.634705420870e+001 0.000000000000e+000
          1.222819867503e+000 1.599517159419e+001 0.000000000000e+000
          1.215723647926e+000 1.546209040954e+001 0.000000000000e+000
          1.770601276021e+000 1.521217632514e+001 0.000000000000e+000
          1.242830150061e+000 1.493919370237e+001 0.000000000000e+000
          1.166444124506e+000 4.610115997312e+000 0.000000000000e+000
          1.851620547934e+000 4.486892013458e+000 0.000000000000e+000
          1.494152702314e+000 5.145235789232e+000 0.000000000000e+000
          1.353088107040e+000 4.090803091641e+000 0.000000000000e+000
          3.802567455935e+000 5.084697985980e+000 0.000000000000e+000
          1.014840185783e+000 5.494768572296e+000 0.000000000000e+000
          8.831064584820e-001 5.109311190608e+000 0.000000000000e+000
          1.727903958959e+000 1.618384478933e+001 0.000000000000e+000
          1.343261525342e+000 1.651800241408e+001 0.000000000000e+000
          3.308120627291e+000 8.593311644828e+000 0.000000000000e+000
[...]
      <PointData Scalars="LIQUID_PRESSURE">
        <DataArray type="Float64" Name="LIQUID_PRESSURE" format="ascii">
          1.000772912322e+006 9.999748114244e+005 9.999995966257e+005 9.999722943806e+005 1.000114017108e+006 1.000306915793e+006 1.000240649538e+006 1.000819475778e+006 1.000857949071e+006 1.000848815359e+006 1.000210175672e+006 1.000897048217e+006 9.999041179920e+005 1.000691798419e+006 1.000100529130e+006 1.000376714687e+006 1.000687453484e+006 9.999752129736e+005 1.000791987666e+006 1.000856218540e+006 1.000702501480e+006 1.000751908976e+006 1.000380147883e+006 1.000747026168e+006 1.000317641385e+006 1.000314544379e+006 1.000309205739e+006 1.000319413633e+006 1.000307523657e+006 1.000316277394e+006 1.000314424003e+006 1.000317616275e+006 1.000308996556e+006 1.000319440996e+006 1.000344564985e+006 1.000338222897e+006 1.000339478487e+006 1.000348461425e+006 1.000348476927e+006 1.000335823411e+006 1.000338294534e+006 1.000344705431e+006 1.000339442103e+006 1.000348195852e+006 1.000302144365e+006 1.000297215489e+006 1.000295938044e+006 1.000303457268e+006 1.000293103990e+006 1.000300853744e+006 1.000297052011e+006 1.000302166385e+006 1.000293973418e+006 1.000303297507e+006 1.000291888587e+006 1.000288261821e+006 1.000290573434e+006 1.000288431622e+006 1.000283597662e+006 1.000358765740e+006 1.000343131724e+006 1.000340852211e+006 1.000358394603e+006 1.000341190228e+006 1.000334255740e+006 1.000340373417e+006 1.000379765267e+006 1.000334621035e+006 1.000330326347e+006 1.000327180976e+006 1.000328170803e+006 1.000330335968e+006 1.000327180244e+006 1.000294373258e+006 1.000302220232e+006 1.000285473076e+006 1.000295507872e+006 1.000306204738e+006 1.000340412859e+006 1.000329199230e+006 1.000329705740e+006 1.000340406965e+006 1.000329219872e+006 1.000606439748e+006 1.000763320837e+006 1.000638619436e+006 1.000160853203e+006 1.000013089813e+006 9.999224020452e+005 1.000417676714e+006 1.000461294898e+006 1.000258996979e+006 1.000341837699e+006 1.000907259438e+006 1.000864174983e+006 1.000346942421e+006 1.000891394199e+006 1.000592848538e+006 1.000704339397e+006 1.000387572041e+006 1.000825650689e+006 1.000786952530e+006 1.000571460513e+006 1.000816020120e+006 1.000650862030e+006 1.000520303254e+006 1.000682915852e+006 9.999295375505e+005 9.999446114979e+005 9.999090574557e+005 1.000670975497e+006 1.000608340104e+006 1.000056635077e+006 1.000001556190e+006 1.000919133718e+006 1.000311884815e+006 1.000898746604e+006 1.000656044041e+006 1.000606852133e+006 1.000689785523e+006 1.000150130183e+006 9.999814467578e+005 9.999397838057e+005 1.000572420383e+006 1.000181238884e+006 9.999076711946e+005 9.999064348454e+005 1.000567768882e+006 9.999116266742e+005 9.999167808842e+005 1.000607060109e+006 1.000174356995e+006 9.999838141803e+005 1.000249278442e+006 9.999353665694e+005 1.000041095915e+006 1.000465558393e+006 9.999628567851e+005 9.999002037940e+005 1.000521800221e+006 9.999015096183e+005 1.000106649146e+006 1.000157495364e+006 9.999500898274e+005 1.000173615584e+006 1.000000651303e+006 1.000038722450e+006 1.000160538900e+006 1.000144582100e+006 1.000252397015e+006 1.000667188033e+006 1.000684397026e+006 1.000688207964e+006 9.999320624740e+005 1.000442275350e+006 1.000890150187e+006 1.000607140616e+006 1.000602904138e+006 1.000140654468e+006 9.999469983206e+005 1.000328809688e+006 1.000140786497e+006 1.000015286749e+006 1.000026275599e+006 1.000077346768e+006 1.000518615661e+006 1.000672514416e+006 1.000670032896e+006 1.000680187533e+006 1.000883860349e+006 1.000292025550e+006 1.000806169279e+006 1.000165258613e+006 9.999331634279e+005 1.000536689303e+006 9.999597138697e+005 1.000443025401e+006 1.000656061082e+006 1.000710082693e+006 9.999030340565e+005 1.000636720781e+006 1.000592940240e+006 1.000156191706e+006 1.000847720528e+006 1.000140239563e+006 1.000301521194e+006 9.999285612821e+005 9.999814989906e+005 1.000547177372e+006 1.000883518452e+006 1.000379284654e+006 1.000733316276e+006 1.000901780689e+006 1.000896933593e+006 9.999816380462e+005 1.000888384152e+006 1.000160781651e+006 1.000730430677e+006 1.000024480041e+006 9.999711818583e+005 1.000681644276e+006 1.000843992536e+006 1.000486512643e+006 9.999142240591e+005 9.999114900696e+005 9.998980260304e+005 1.000351570240e+006 9.999337141126e+005 9.999801482548e+005 1.000039403239e+006 9.999395741431e+005 1.000304359119e+006 1.000869342412e+006 1.000394883633e+006 1.000392004154e+006 1.000629838509e+006 1.000888125986e+006 9.999426396114e+005 1.000334949955e+006 9.999801246787e+005 1.000808058045e+006 1.000215483336e+006 1.000906187541e+006 9.999393243095e+005 1.000251934587e+006 9.999538508402e+005 1.000645914488e+006 1.000796698339e+006 1.000038483473e+006 1.000826434592e+006 9.999071240081e+005 9.999556029770e+005 1.000475419625e+006 9.999868462102e+005 1.000341062934e+006 1.000201283572e+006 1.000625244840e+006 1.000606956983e+006 9.998916028314e+005 1.000948709337e+006 1.000365008658e+006 1.000409669157e+006 1.000398313866e+006 1.000817770903e+006 1.000755451826e+006 1.000788048303e+006 1.000805665942e+006 1.000517111072e+006 1.000597527942e+006 1.000569344013e+006 9.999296909338e+005 1.000357932925e+006 1.000613036447e+006 1.000659174669e+006 1.000648578119e+006 1.000668107833e+006 1.000627431088e+006 1.000661060394e+006 1.000577176071e+006 1.000665521556e+006 1.000658017900e+006 1.000676958249e+006 1.000655464856e+006 1.000302834434e+006 1.000349632357e+006 1.000434344705e+006 1.000413584016e+006 1.000410920882e+006 1.000318137220e+006 1.000335876427e+006 1.000307267639e+006 1.000458288170e+006 1.000417234037e+006 1.000419645981e+006 1.000321209313e+006 1.000337062857e+006 1.000306558187e+006 1.000403579572e+006 1.000492195154e+006 1.000397636659e+006 1.000328065117e+006 1.000307585127e+006 1.000339979547e+006 1.000396830404e+006 1.000491198501e+006 1.000394376790e+006 1.000329157653e+006 1.000367692030e+006 1.000397454088e+006 1.000392922483e+006 1.000375278834e+006 1.000371258198e+006 1.000373932019e+006 1.000397466298e+006 1.000367703073e+006 1.000392912352e+006 1.000375266685e+006 1.000371264203e+006 1.000373925535e+006 1.000322225439e+006 1.000470348822e+006 1.000338583523e+006 1.000377932665e+006 1.000318706506e+006 1.000359825407e+006 1.000470342742e+006 1.000322254218e+006 1.000338562951e+006 1.000377922394e+006 1.000318705771e+006 1.000359826395e+006 1.000468650951e+006 1.000406765696e+006 1.000293979352e+006 1.000333706481e+006 1.000406726539e+006 1.000468575736e+006 1.000293964944e+006 1.000333364410e+006 1.000432428758e+006 1.000301947573e+006 1.000496926010e+006 1.000344858038e+006 1.000468758595e+006 1.000427455109e+006 1.000301872323e+006 1.000432418180e+006 1.000497068832e+006 1.000344878306e+006 1.000468767750e+006 1.000427457104e+006 1.000309539387e+006 1.000298617394e+006 1.000336947578e+006 1.000308748894e+006 1.000298971345e+006 1.000336748280e+006 1.000393162471e+006 1.000440654341e+006 1.000384348805e+006 1.000393167641e+006 1.000440625651e+006 1.000384316617e+006 1.000306655634e+006 1.000306704390e+006 1.000443708741e+006 1.000369694963e+006 1.000319295847e+006 1.000325281327e+006 1.000443114713e+006 1.000325468397e+006 1.000402496884e+006 1.000364956870e+006 1.000372787675e+006 1.000384860006e+006 1.000402494054e+006 1.000384857440e+006 1.000341936014e+006 1.000393973490e+006 1.000342894649e+006 1.000388159872e+006 1.000480511552e+006 1.000479961662e+006 1.000387676989e+006 1.000448472436e+006 1.000297702611e+006 1.000297680807e+006 1.000403541682e+006 1.000333668473e+006 1.000403548675e+006 1.000414083593e+006 1.000394019102e+006 1.000414075744e+006 1.000405297169e+006 1.000405333034e+006 1.000367174858e+006 1.000413884110e+006 1.000413873470e+006 1.000398522337e+006 1.000342966060e+006 1.000398724551e+006 1.000363565841e+006 1.000344785513e+006 1.000356101991e+006 1.000341667050e+006 1.000364430365e+006 1.000318231042e+006 1.000363929648e+006 1.000315154205e+006 1.000117895585e+006 1.000133735677e+006 1.000434368139e+006 1.000529174063e+006 1.000242459077e+006 1.000548531114e+006 1.000912060856e+006 1.000352032365e+006 1.000841138185e+006 1.000623458042e+006 1.000295308936e+006 1.000434061170e+006 1.000517421104e+006 1.000081166606e+006 1.000789667337e+006 9.996291377006e+005 1.001598486116e+006 1.000834297027e+006 1.000210678644e+006 1.000676182124e+006 1.000781879530e+006 1.000380132112e+006 1.000694478398e+006 9.998755089064e+005 1.000485843420e+006 1.000367867211e+006 1.000892455458e+006 1.000543735872e+006 1.000182925635e+006 1.000175708722e+006 1.000412029914e+006 1.000879387863e+006 1.000128869839e+006 1.000830254418e+006 1.000487011308e+006 1.000740892254e+006 1.000066696450e+006 1.000147459664e+006 1.000153589823e+006 1.000642600987e+006 1.000101634501e+006 1.000780432471e+006 1.000430035772e+006 1.000614339464e+006 1.000764431599e+006 1.000548714111e+006 1.000296607893e+006 1.000566915280e+006 1.000242879840e+006 9.999126605226e+005 1.000444102215e+006 1.000807686602e+006 1.000418665148e+006 1.000027341986e+006 1.000008924305e+006 1.000301292619e+006 1.000358690438e+006 1.000368032308e+006 1.000646365291e+006 1.000637720910e+006 1.000798585481e+006 1.000456142271e+006 1.000579671155e+006 1.000035004807e+006 1.000850293223e+006 9.999791045490e+005 1.000442501453e+006 1.000377291287e+006 1.000450595915e+006 1.000489728078e+006 9.999349492265e+005 1.000081729277e+006 1.000791982403e+006 9.999629081234e+005 1.000044854093e+006 1.000577303442e+006 1.000551847902e+006 1.000077145650e+006 1.000103250111e+006 1.000065166618e+006 1.000338326502e+006 1.000075076923e+006 1.000523515893e+006 1.000615982994e+006 1.000558348146e+006 1.000072413615e+006 1.000260840269e+006 1.000724303181e+006 1.000809041778e+006 1.000494897298e+006 1.000163375758e+006 1.000214829343e+006 9.999955101577e+005 9.999110840265e+005 1.000588171732e+006 1.000820274625e+006 9.998709394159e+005 9.999550848932e+005 1.000573058061e+006 1.000908896436e+006 1.000465812023e+006 1.000006178112e+006 1.000642079680e+006 1.000754650190e+006 1.000452588101e+006 1.000104240877e+006 1.000853947566e+006 1.000349282572e+006 1.000422670912e+006 1.000324838771e+006 1.000335026118e+006 9.999474471811e+005 1.000073830895e+006 1.000561047177e+006 1.000858404178e+006 1.000374092672e+006 9.999687559615e+005 1.000231900231e+006 1.000610252113e+006 1.000612261031e+006 1.000853868909e+006 1.000116024997e+006 1.000014178078e+006 1.000815750319e+006 1.000749578835e+006 1.000758136613e+006 1.000424314739e+006 9.999121292701e+005 1.000483051502e+006 1.000877932274e+006 1.000360364428e+006 1.000858796839e+006 1.000860809674e+006 1.000592107614e+006 9.999780850369e+005 1.000821544521e+006 1.000804075083e+006 9.998960278919e+005 1.000083102674e+006 1.000608080381e+006 1.000390484160e+006 1.000126196162e+006 1.000204159099e+006 1.000828722272e+006 1.000388308607e+006 1.000526792841e+006 1.000844858592e+006 1.000091298600e+006 1.000308787778e+006 1.000574595420e+006 1.000170163065e+006 1.000258947541e+006 1.000688107033e+006 1.000085656257e+006 1.000195093662e+006 1.000106123023e+006 1.000862653655e+006 1.000906481419e+006 9.999880705551e+005 1.000043291101e+006 1.000162856228e+006 1.000659593682e+006 1.000361511263e+006 1.000390304160e+006 1.000879366141e+006 1.000643012193e+006 1.000369987274e+006 1.000497720394e+006 1.000828821546e+006 1.000820020275e+006 1.000542359311e+006 1.000489491983e+006 1.000098372062e+006 1.000339955464e+006 1.000062409720e+006 1.000903600338e+006 9.998688612975e+005 1.000663735114e+006 1.000456833828e+006 1.000161895427e+006 1.000013038010e+006 1.000732153374e+006 1.000006769212e+006 9.999027832254e+005 1.000332682307e+006 1.000761980532e+006 1.000322175814e+006 1.000683094872e+006 1.000472498318e+006 1.000306695348e+006 1.000812657782e+006 1.000120411886e+006 9.998759851283e+005 1.000773229986e+006 1.000245342121e+006 1.000831958581e+006 1.000046261299e+006 1.000755270622e+006 1.000388027385e+006 9.998956879441e+005 1.000784606118e+006 1.000160633837e+006 1.000838016513e+006 1.000000971126e+006 1.000410871573e+006 1.000615897308e+006 9.999730146076e+005 9.999904864281e+005 1.000648170253e+006 1.000408238534e+006 1.000573416694e+006 1.000384974958e+006 1.000181830372e+006 1.000487358443e+006 1.000811715498e+006 1.000606394564e+006 1.000069990969e+006 1.000825347605e+006 1.000225091109e+006 9.999274188817e+005 1.000774727408e+006 1.000301531223e+006 1.000403731364e+006 1.000405913823e+006 1.000486832691e+006 1.000804939431e+006 1.000393465786e+006 1.000261697535e+006 1.000682802397e+006 9.999522550931e+005 1.000623421952e+006 1.000175553446e+006 1.000661890829e+006 1.000239380934e+006 1.000584148897e+006 1.000242559482e+006 1.000201331366e+006 9.994623678331e+005 1.001355982999e+006 1.000595835447e+006 9.999164238778e+005 9.999878462146e+005 1.000518326838e+006 1.000008495218e+006 1.000335451515e+006 1.000356621015e+006 1.000422091383e+006 1.000356094176e+006 1.000419059609e+006 9.999490874543e+005 1.000248012284e+006 9.999706406138e+005 9.999314481674e+005 1.000272851906e+006 1.000412653724e+006 1.000471809691e+006 1.000412414037e+006 1.000775777008e+006 1.000331870090e+006 1.000167475063e+006 1.000434827351e+006 1.000216769373e+006 9.999495443581e+005 1.000710212207e+006 1.000864002040e+006 9.999369508431e+005 9.998752970628e+005 1.000860208919e+006 9.998754302014e+005 1.000142046923e+006 1.000671607183e+006 1.001154796923e+006 1.000884552469e+006 1.000651751796e+006 1.000833479239e+006 1.000493471382e+006 1.000695915063e+006 1.000625928046e+006 1.000607827204e+006 1.000110968457e+006 1.000302810014e+006 1.000303011062e+006 1.000666878288e+006 1.000605988873e+006 1.000134987566e+006 1.000606995579e+006 1.000596316302e+006 1.000682193532e+006 1.000806101875e+006 1.000481162858e+006 1.000018896199e+006 1.000271561425e+006 1.000214914654e+006 1.000726557941e+006 1.000834573419e+006 1.000753548897e+006 1.000187152291e+006 1.000578403418e+006 1.000651348720e+006 1.000664583489e+006 1.000513178839e+006 1.000223007892e+006 1.000388255242e+006 1.000481624178e+006 1.000551134965e+006 1.000435910952e+006 1.000386297319e+006 1.000560053987e+006 1.000383699143e+006 1.000342675754e+006 1.000373376303e+006 1.000239817709e+006 1.000335495229e+006 1.000350849992e+006 1.000489311146e+006 1.000290277601e+006 1.000423994814e+006 1.000280021889e+006 1.000464366677e+006 1.000378799423e+006 1.000483751353e+006 1.000484215821e+006 1.000484161922e+006 1.000475301322e+006 1.000347565402e+006 1.000319254026e+006 1.000206228340e+006 1.000318464706e+006 1.000208115052e+006 1.000607740084e+006 1.000354770850e+006 1.000537840184e+006 1.000358576320e+006 1.000545500243e+006 1.000411451617e+006 1.000346699016e+006 1.000427503477e+006 1.000358516605e+006 1.000358451625e+006 1.000410635576e+006 1.000427674880e+006 1.000332742856e+006 1.000424485261e+006 1.000514815062e+006 1.000419578429e+006 1.000539300407e+006 1.000245021734e+006 1.000301052487e+006 1.000239291657e+006 1.000288443755e+006 1.000517439273e+006 1.000433923938e+006 1.000518240194e+006 1.000435634685e+006 1.000401724121e+006 1.000193553080e+006 1.000607948910e+006 1.000559414110e+006 1.000418628524e+006 1.000326961989e+006 1.000195276500e+006 1.000402889350e+006 1.000603635763e+006 1.000560127853e+006 1.000419201919e+006 1.000327252401e+006 1.000313189693e+006 1.000228591170e+006 1.000410908139e+006 1.000315791011e+006 1.000225488632e+006 1.000414962988e+006 1.000631126013e+006 1.000486276600e+006 1.000552202941e+006 1.000631202950e+006 1.000465446096e+006 1.000553541891e+006 1.000099368804e+006 1.000448129167e+006 1.000115998152e+006 1.000100188950e+006 1.000472432442e+006 1.000131465610e+006 1.000710915321e+006 1.000159551255e+006 1.000683905606e+006 1.000144487154e+006 1.000271210233e+006 1.000574192113e+006 1.000270868256e+006 1.000571738584e+006 1.000331294890e+006 1.000422726485e+006 1.000389096176e+006 1.000333122755e+006 1.000422106398e+006 1.000389477354e+006 1.000290157781e+006 1.000483134283e+006 1.000289796334e+006 1.000482353630e+006 1.000501006364e+006 1.000503039469e+006 1.000449104472e+006 1.000448001856e+006 1.000187371636e+006 1.000181513946e+006 1.000161285525e+006 1.000616366724e+006 1.000107150873e+006 1.000444735642e+006 1.000602008723e+006 1.000576158997e+006 1.000177761901e+006 1.000185374963e+006 1.000193830128e+006 1.000587467535e+006 1.000272907383e+006 1.000589656916e+006 1.000271655266e+006 1.000427739953e+006 1.000152708955e+006 1.000414789296e+006 1.000147315240e+006 1.000130606524e+006 1.000649054265e+006 1.000226385943e+006 9.999504116074e+005 1.000768480209e+006 1.000715265710e+006 1.000620646024e+006 1.000563662454e+006 1.000465311310e+006 1.000609027535e+006 1.000589821100e+006 1.000550672769e+006 1.000178485203e+006 1.000369691420e+006 1.000097746692e+006 1.000438235783e+006 1.000234575798e+006 1.000105312272e+006 1.000241231745e+006 1.000167585062e+006 1.000247330448e+006 1.000739986610e+006 1.000763923725e+006 1.000243607443e+006 1.000611026932e+006 1.000232468816e+006 1.000435551876e+006 1.000627934801e+006 1.000000000000e+006 1.000000000000e+006 1.000243374174e+006 1.000663936094e+006 1.000835914219e+006 1.000160224501e+006 1.000695491599e+006 1.000696280976e+006 9.999987550256e+005 1.000812212997e+006 1.000362891182e+006 1.000757742921e+006 1.000148759800e+006 1.000107064837e+006 1.000098785049e+006 9.999587705285e+005 1.000285820619e+006 1.000158149763e+006 1.000715723174e+006 1.000839706323e+006 1.000371888195e+006 1.000136580393e+006 1.000150416815e+006 1.000734776095e+006 1.000688124596e+006 1.000667461130e+006 1.000350804254e+006 1.000349652018e+006 1.000840389980e+006 1.000351582607e+006 1.000351732359e+006 1.000201848230e+006 1.000317774431e+006 1.000702118399e+006 1.000190495683e+006 1.000076101987e+006 9.999556947605e+005 1.000248541812e+006 1.000494865163e+006 1.000178118380e+006 1.000384958306e+006 1.000101610028e+006 1.000073594839e+006 1.000008318598e+006 1.000790040520e+006 1.000594253879e+006 1.000384646616e+006 1.000762122097e+006 1.000451139135e+006 1.000763827081e+006 1.000506950734e+006 1.000408635066e+006 1.000510419866e+006 1.000785654219e+006 1.000661556828e+006 9.999527308978e+005 1.000258600918e+006 1.000824788804e+006 1.000383431463e+006 1.000383208744e+006 1.000860246569e+006 1.000598266147e+006 1.000416012129e+006 1.000184292909e+006 1.000795866891e+006 1.000696739978e+006 9.999928931221e+005 1.000316200790e+006 1.000365993705e+006 1.000589123249e+006 1.000234551720e+006 1.000178678544e+006 1.000784772976e+006 1.000610770329e+006 1.000777335434e+006 1.000810552222e+006 1.000585238299e+006 9.999533189146e+005 1.000078932898e+006 1.000316632577e+006 1.000710796663e+006 1.000438559490e+006 1.000224073774e+006 9.999453255051e+005 1.000394464529e+006 1.000144117983e+006 1.000645665208e+006 1.000895543834e+006 1.000681864614e+006 1.000691111014e+006 1.000719308722e+006 1.000692043520e+006 1.000700265463e+006 1.000800582051e+006 1.000723523931e+006 1.000175217756e+006 1.000276020127e+006 1.000341364022e+006 1.000287178130e+006 1.000655067316e+006 1.000265542903e+006 9.992826080475e+005 1.000091887362e+006 1.000677932343e+006 1.000653082584e+006 1.000807642446e+006 1.000207292825e+006 1.000230419522e+006 1.000278967360e+006 1.000358325610e+006 1.000358159626e+006 1.000420891314e+006 1.000417564187e+006 1.000769332848e+006 1.000680434767e+006 1.000244439860e+006 1.000250213864e+006 1.000266769945e+006 1.000278244589e+006 1.000665290860e+006 1.000639068114e+006 
        </DataArray>
        <DataArray type="Float64" Name="MEAN_PRESSURE" format="ascii">