<?xml version="1.0"?>
<VTKFile type="UnstructuredGrid" version="0.1" byte_order="LittleEndian">
  <UnstructuredGrid>
    <Piece NumberOfPoints="963" NumberOfCells="1758">
      <Points>
        <DataArray type="Float64" NumberOfComponents="3" format="ascii">
          1.600262034769e+002 1.257989505921e+001 0.000000000000e+000
          1.635346199106e+002 2.000000000000e+001 0.000000000000e+000
          1.554515002484e+002 2.000000000000e+001 0.000000000000e+000
          3.459306441575e+000 1.667621982453e+001 0.000000000000e+000
          3.062266634850e+000 1.705413688405e+001 0.000000000000e+000
          2.873380769063e+000 1.650527725632e+001 0.000000000000e+000
          1.514088444034e+000 1.865189448105e+001 0.000000000000e+000
          1.967902677551e+000 1.834103489750e+001 0.000000000000e+000
          2.034564522234e+000 1.890806711991e+001 0.000000000000e+000
          2.478275273162e+000 1.702762299110e+001 0.000000000000e+000
          2.952621433467e+000 1.774357373580e+001 0.000000000000e+000
          2.237893542067e+000 1.782457469610e+001 0.000000000000e+000
          3.313583922780e+000 3.274674552047e+000 0.000000000000e+000
          2.561432712787e+000 3.156040447793e+000 0.000000000000e+000
          3.047531989640e+000 2.714594415171e+000 0.000000000000e+000
          2.750804692284e+000 3.936058190693e+000 0.000000000000e+000
          2.599039179818e+000 2.451529939148e+000 0.000000000000e+000
          3.139686649742e+000 2.186924052088e+000 0.000000000000e+000
          1.919984553221e+000 3.358010194268e+000 0.000000000000e+000
          1.960900304591e+000 2.773319745251e+000 0.000000000000e+000
          1.894565400391e+000 1.733316857565e+001 0.000000000000e+000
          0.000000000000e+000 1.538461538461e+001 0.000000000000e+000
          5.816229249735e-001 1.567919247147e+001 0.000000000000e+000
          0.000000000000e+000 1.589743589743e+001 0.000000000000e+000
          9.766405669483e+001 2.000000000000e+001 0.000000000000e+000
          1.010672711393e+002 1.500000000000e+001 0.000000000000e+000
          1.029329279907e+002 2.000000000000e+001 0.000000000000e+000
          9.588503785413e+001 1.500000000000e+001 0.000000000000e+000
          1.039231647117e+002 1.000000000000e+001 0.000000000000e+000
          9.860830811271e+001 1.000000000000e+001 0.000000000000e+000
          1.010672711397e+002 5.000000000000e+000 0.000000000000e+000
          9.766405669557e+001 0.000000000000e+000 0.000000000000e+000
          1.029329279915e+002 0.000000000000e+000 0.000000000000e+000
          9.588503785449e+001 5.000000000000e+000 0.000000000000e+000
          7.892434178002e+001 2.000000000000e+001 0.000000000000e+000
          8.173808356948e+001 1.500000000000e+001 0.000000000000e+000
          8.328058896910e+001 2.000000000000e+001 0.000000000000e+000
          7.679274808893e+001 1.514423393202e+001 0.000000000000e+000
          7.970503892166e+001 1.000000000000e+001 0.000000000000e+000
          8.409930620613e+001 1.000000000000e+001 0.000000000000e+000
          8.173808356980e+001 5.000000000000e+000 0.000000000000e+000
          7.892434178065e+001 0.000000000000e+000 0.000000000000e+000
          8.328058896976e+001 0.000000000000e+000 0.000000000000e+000
          7.679274808925e+001 4.855766067979e+000 0.000000000000e+000
          1.084583939765e+002 2.000000000000e+001 0.000000000000e+000
          1.122011528880e+002 1.500000000000e+001 0.000000000000e+000
          1.142529496098e+002 2.000000000000e+001 0.000000000000e+000
          1.065018792644e+002 1.500000000000e+001 0.000000000000e+000
          1.153419838410e+002 1.000000000000e+001 0.000000000000e+000
          1.094968549120e+002 1.000000000000e+001 0.000000000000e+000
          1.122011528884e+002 5.000000000000e+000 0.000000000000e+000
          1.084583939773e+002 0.000000000000e+000 0.000000000000e+000
          1.142529496106e+002 0.000000000000e+000 0.000000000000e+000
          1.065018792648e+002 5.000000000000e+000 0.000000000000e+000
          1.181779812237e+002 1.500000000000e+001 0.000000000000e+000
          1.203297004775e+002 2.000000000000e+001 0.000000000000e+000
          1.214717707847e+002 1.000000000000e+001 0.000000000000e+000
          1.181779812242e+002 5.000000000000e+000 0.000000000000e+000
          1.203297004784e+002 0.000000000000e+000 0.000000000000e+000
          7.477039199538e+001 2.000000000000e+001 0.000000000000e+000
          7.551483469771e+001 1.000000000000e+001 0.000000000000e+000
          7.296959467356e+001 1.385646386579e+001 0.000000000000e+000
          7.477039199599e+001 0.000000000000e+000 0.000000000000e+000
          7.296959467379e+001 6.143536134207e+000 0.000000000000e+000
          6.918477198508e+001 1.366665532880e+001 0.000000000000e+000
          6.746477463053e+001 1.000000000000e+001 0.000000000000e+000
          7.151921701478e+001 1.000000000000e+001 0.000000000000e+000
          6.918477198529e+001 6.333344671202e+000 0.000000000000e+000
          9.263986346551e+001 2.000000000000e+001 0.000000000000e+000
          9.094345943471e+001 1.500000000000e+001 0.000000000000e+000
          9.354026529380e+001 1.000000000000e+001 0.000000000000e+000
          9.263986346623e+001 0.000000000000e+000 0.000000000000e+000
          9.094345943506e+001 5.000000000000e+000 0.000000000000e+000
          1.244344522558e+002 1.503312574389e+001 0.000000000000e+000
          1.267023895482e+002 2.000000000000e+001 0.000000000000e+000
          1.285510028831e+002 1.020485663255e+001 0.000000000000e+000
          1.244344522563e+002 5.033125743893e+000 0.000000000000e+000
          1.267023895491e+002 0.000000000000e+000 0.000000000000e+000
          8.623136018348e+001 1.500000000000e+001 0.000000000000e+000
          8.784898578901e+001 2.000000000000e+001 0.000000000000e+000
          8.870757443665e+001 1.000000000000e+001 0.000000000000e+000
          8.623136018382e+001 5.000000000000e+000 0.000000000000e+000
          8.784898578969e+001 0.000000000000e+000 0.000000000000e+000
          4.872472752737e+000 0.000000000000e+000 0.000000000000e+000
          4.204479229380e+000 6.412840757122e-001 0.000000000000e+000
          4.157376851380e+000 0.000000000000e+000 0.000000000000e+000
          5.192892237051e+000 7.280355562789e-001 0.000000000000e+000
          1.306630304579e+000 6.212843344151e-001 0.000000000000e+000
          1.050228457081e+000 0.000000000000e+000 0.000000000000e+000
          1.614006202528e+000 0.000000000000e+000 0.000000000000e+000
          1.266763055794e+001 1.554696422866e+001 0.000000000000e+000
          1.263589100638e+001 1.657720348306e+001 0.000000000000e+000
          1.174268578662e+001 1.633018318031e+001 0.000000000000e+000
          6.588835695415e+000 7.505681085529e+000 0.000000000000e+000
          6.456871838389e+000 6.658671683861e+000 0.000000000000e+000
          7.208099140752e+000 7.038822846307e+000 0.000000000000e+000
          4.412623338166e+000 9.138856431549e+000 0.000000000000e+000
          4.024185797397e+000 8.708923235630e+000 0.000000000000e+000
          4.601447447338e+000 8.507292699647e+000 0.000000000000e+000
          5.325995059827e-001 6.308307298123e+000 0.000000000000e+000
          0.000000000000e+000 6.666666666655e+000 0.000000000000e+000
          0.000000000000e+000 6.153846153835e+000 0.000000000000e+000
          3.986461521768e+000 8.146114708182e+000 0.000000000000e+000
          2.411603373059e+000 6.510912162016e+000 0.000000000000e+000
          1.807525763324e+000 6.938080373464e+000 0.000000000000e+000
          1.686779352680e+000 6.178928843543e+000 0.000000000000e+000
          2.510760620997e+000 7.229076682239e+000 0.000000000000e+000
          3.166991983438e+000 6.906135870389e+000 0.000000000000e+000
          3.452788915829e+000 6.276851216781e+000 0.000000000000e+000
          3.340122000742e+000 5.656365440432e+000 0.000000000000e+000
          4.047936562877e+000 5.873561587395e+000 0.000000000000e+000
          1.802463974828e+000 1.292744708026e+001 0.000000000000e+000
          1.383967161336e+000 1.330299552906e+001 0.000000000000e+000
          1.329690820161e+000 1.266495373033e+001 0.000000000000e+000
          2.267922292389e+000 1.431116835808e+001 0.000000000000e+000
          2.854613987538e+000 1.466581611369e+001 0.000000000000e+000
          2.339869278674e+000 1.493776402241e+001 0.000000000000e+000
          4.690956878046e+000 3.115726773737e+000 0.000000000000e+000
          4.014773718330e+000 2.850429494150e+000 0.000000000000e+000
          4.643493383296e+000 2.293565471327e+000 0.000000000000e+000
          5.186083944243e+000 1.661927139510e+000 0.000000000000e+000
          5.452965511439e+000 2.679881546544e+000 0.000000000000e+000
          5.360460104304e+000 3.539902157655e+000 0.000000000000e+000
          6.197986304192e+000 3.115706366113e+000 0.000000000000e+000
          7.929356606585e-001 1.634705420870e+001 0.000000000000e+000
          1.222819867503e+000 1.599517159419e+001 0.000000000000e+000
          1.215723647926e+000 1.546209040954e+001 0.000000000000e+000
          1.770601276021e+000 1.521217632514e+001 0.000000000000e+000
          1.242830150061e+000 1.493919370237e+001 0.000000000000e+000
          1.166444124506e+000 4.610115997312e+000 0.000000000000e+000
          1.851620547934e+000 4.486892013458e+000 0.000000000000e+000
          1.494152702314e+000 5.145235789232e+000 0.000000000000e+000
          1.353088107040e+000 4.090803091641e+000 0.000000000000e+000
          3.802567455935e+000 5.084697985980e+000 0.000000000000e+000
          1.014840185783e+000 5.494768572296e+000 0.000000000000e+000
          8.831064584820e-001 5.109311190608e+000 0.000000000000e+000
          1.727903958959e+000 1.618384478933e+001 0.000000000000e+000
          1.343261525342e+000 1.651800241408e+001 0.000000000000e+000
          3.308120627291e+000 8.593311644828e+000 0.000000000000e+000
[...]
      <PointData Scalars="LIQUID_PRESSURE">
        <DataArray type="Float64" Name="LIQUID_PRESSURE" format="ascii">
          1.034200392035e+006 1.031198278975e+006 1.038114940146e+006 1.145481944018e+006 1.145497628241e+006 1.145573083330e+006 1.145680580348e+006 1.146052633636e+006 1.146078625639e+006 1.145937762000e+006 1.145516310769e+006 1.146047747512e+006 1.145403173268e+006 1.145852911533e+006 1.145476684570e+006 1.145658123916e+006 1.145824619043e+006 1.145424370899e+006 1.146046173592e+006 1.146087192463e+006 1.145995022402e+006 1.145617122879e+006 1.145344953767e+006 1.145606479354e+006 1.090545826406e+006 1.087305723881e+006 1.085233866852e+006 1.092313707333e+006 1.084005982043e+006 1.089828314245e+006 1.087305515492e+006 1.090545580318e+006 1.085233691047e+006 1.092313604857e+006 1.110244379651e+006 1.107426536257e+006 1.105758022733e+006 1.112023631403e+006 1.109349508167e+006 1.104943701961e+006 1.107426626908e+006 1.110243789502e+006 1.105758301331e+006 1.112022354871e+006 1.079221879241e+006 1.075150752232e+006 1.073287148994e+006 1.081291890890e+006 1.072512307052e+006 1.077811957189e+006 1.075150680050e+006 1.079221749659e+006 1.073287055623e+006 1.081291825972e+006 1.070020564310e+006 1.068162947557e+006 1.067209138887e+006 1.070020532531e+006 1.068162922319e+006 1.113861059581e+006 1.112832736482e+006 1.115093667601e+006 1.113856764047e+006 1.115088611407e+006 1.118003131436e+006 1.120156618803e+006 1.116605311347e+006 1.117998682591e+006 1.096529112718e+006 1.098181145418e+006 1.095685023671e+006 1.096529149368e+006 1.098181195420e+006 1.064662911980e+006 1.062719232763e+006 1.061139622563e+006 1.064662920029e+006 1.062719375791e+006 1.103319271968e+006 1.100941401691e+006 1.101102932076e+006 1.103319493672e+006 1.100941585956e+006 1.145560991858e+006 1.145900078814e+006 1.145844383046e+006 1.145325812393e+006 1.145490919933e+006 1.145314712012e+006 1.145823560352e+006 1.144753692200e+006 1.144667028652e+006 1.144793944675e+006 1.145683093936e+006 1.145710147303e+006 1.145242508275e+006 1.145807359996e+006 1.145789553945e+006 1.145689133488e+006 1.145305350161e+006 1.145517693700e+006 1.145498813619e+006 1.145772644922e+006 1.145921861545e+006 1.145929294616e+006 1.145867008337e+006 1.145821111187e+006 1.145425735681e+006 1.145492934533e+006 1.145418433365e+006 1.145820677490e+006 1.145910055276e+006 1.145540396261e+006 1.145490736616e+006 1.146006735688e+006 1.145552702452e+006 1.145960754299e+006 1.145593457349e+006 1.145757584965e+006 1.145648092261e+006 1.145305786917e+006 1.145239404389e+006 1.145221461668e+006 1.145607408019e+006 1.145277521206e+006 1.145354545468e+006 1.145363838860e+006 1.145891069571e+006 1.145391244762e+006 1.145347056444e+006 1.145982100854e+006 1.145660214007e+006 1.145489801014e+006 1.145651837122e+006 1.145280019580e+006 1.145245591288e+006 1.145825123924e+006 1.145448589003e+006 1.145438965988e+006 1.145721083299e+006 1.145428125835e+006 1.145285307330e+006 1.145287059775e+006 1.145441977904e+006 1.145300571685e+006 1.145269488115e+006 1.145560078494e+006 1.145485484038e+006 1.145293961323e+006 1.145559641848e+006 1.145820197022e+006 1.145496981178e+006 1.145609436690e+006 1.145418051210e+006 1.145822407530e+006 1.146080551633e+006 1.145781697342e+006 1.145561139560e+006 1.145368875105e+006 1.145330623645e+006 1.145522824014e+006 1.145629919775e+006 1.145528158633e+006 1.145262498427e+006 1.145232756951e+006 1.145848505657e+006 1.145591347261e+006 1.145487131531e+006 1.145588809522e+006 1.145987223539e+006 1.145696413104e+006 1.145899152281e+006 1.145626524451e+006 1.145311691991e+006 1.145738419969e+006 1.145470327376e+006 1.145669155234e+006 1.145454501570e+006 1.145550074755e+006 1.145269909855e+006 1.145978146058e+006 1.145932213058e+006 1.145508710912e+006 1.145944235087e+006 1.145265621702e+006 1.145306625669e+006 1.145438251811e+006 1.145490033746e+006 1.145885672502e+006 1.146030531524e+006 1.145527523572e+006 1.145534756342e+006 1.146017795960e+006 1.146019939020e+006 1.145236347417e+006 1.145977109858e+006 1.145627702964e+006 1.145862771020e+006 1.145512817916e+006 1.145510327816e+006 1.145845755000e+006 1.146072115911e+006 1.145867688312e+006 1.145396412098e+006 1.145254691352e+006 1.145412660563e+006 1.145772476424e+006 1.145431940844e+006 1.145437092541e+006 1.145531181275e+006 1.145273667357e+006 1.145747785306e+006 1.146055193268e+006 1.121819753272e+006 1.121836905429e+006 1.145769572531e+006 1.146021166051e+006 1.145200576132e+006 1.145349360369e+006 1.145141947438e+006 1.145447439756e+006 1.145657370129e+006 1.145858060865e+006 1.145300566977e+006 1.145678205329e+006 1.145266160485e+006 1.145943766880e+006 1.145866309181e+006 1.145300729503e+006 1.146042604904e+006 1.145336758672e+006 1.145384880979e+006 1.145671503609e+006 1.145509728614e+006 1.145292033177e+006 1.145608669261e+006 1.145949775335e+006 1.145961279123e+006 1.145394807790e+006 1.146087906650e+006 1.145782984707e+006 1.145303091224e+006 1.145325640217e+006 1.145539772273e+006 1.145554360168e+006 1.145540129741e+006 1.145537597868e+006 1.145354189036e+006 1.145469122797e+006 1.145372837132e+006 1.145276670657e+006 1.145288171699e+006 1.145493357519e+006 1.145546587889e+006 1.145621765742e+006 1.145628682013e+006 1.145438303615e+006 1.145594110406e+006 1.145401519537e+006 1.145566982357e+006 1.145504796957e+006 1.145626917375e+006 1.145625933479e+006 1.125162571627e+006 1.123298558236e+006 1.123132217315e+006 1.126247027869e+006 1.122840582790e+006 1.124917012403e+006 1.123169477962e+006 1.125189466407e+006 1.123086019072e+006 1.126267811279e+006 1.122856482670e+006 1.124928348242e+006 1.129417548770e+006 1.127961684185e+006 1.127310496851e+006 1.130506920388e+006 1.127470464203e+006 1.129067510710e+006 1.127958202804e+006 1.129419044212e+006 1.127310938213e+006 1.130512737091e+006 1.127472357666e+006 1.129070324314e+006 1.138535661389e+006 1.138048131641e+006 1.137542679832e+006 1.138950174040e+006 1.137498205036e+006 1.138462153800e+006 1.138048005958e+006 1.138535558845e+006 1.137542499596e+006 1.138950049002e+006 1.137498079025e+006 1.138462057126e+006 1.136502367928e+006 1.136095190103e+006 1.135396175133e+006 1.137085755191e+006 1.135195213231e+006 1.136457552571e+006 1.136094992874e+006 1.136502262407e+006 1.135395939118e+006 1.137085541118e+006 1.135195062107e+006 1.136457385657e+006 1.140831342125e+006 1.140427621717e+006 1.139944055270e+006 1.141007792557e+006 1.140426904663e+006 1.140830926779e+006 1.139943557708e+006 1.141006928618e+006 1.134396046707e+006 1.133111024528e+006 1.132849557352e+006 1.134456577333e+006 1.132810313650e+006 1.134279283391e+006 1.133110859260e+006 1.134395772246e+006 1.132849831401e+006 1.134456395187e+006 1.132810460573e+006 1.134279099593e+006 1.130950991083e+006 1.131415438575e+006 1.131008407185e+006 1.130955860083e+006 1.131417459506e+006 1.131011598984e+006 1.139435072179e+006 1.139915369334e+006 1.139262728398e+006 1.139434895308e+006 1.139914982089e+006 1.139262409796e+006 1.139808712098e+006 1.139807663269e+006 1.130412729995e+006 1.131500441599e+006 1.129479513196e+006 1.131982940513e+006 1.130415383384e+006 1.131983286622e+006 1.137265107120e+006 1.137736403070e+006 1.136771998721e+006 1.138185076596e+006 1.137265020461e+006 1.138185016420e+006 1.128519286260e+006 1.128119367313e+006 1.128520076709e+006 1.140646558051e+006 1.140898533067e+006 1.140900950200e+006 1.140648114766e+006 1.133096379954e+006 1.133409207530e+006 1.133409210409e+006 1.136118902752e+006 1.135636129562e+006 1.136118828949e+006 1.135002757059e+006 1.134498458829e+006 1.135002661953e+006 1.139790583358e+006 1.139790836602e+006 1.138661459652e+006 1.139132405566e+006 1.139132332443e+006 1.126597902618e+006 1.125107113766e+006 1.126598468329e+006 1.139617468152e+006 1.123582883392e+006 1.122621899788e+006 1.123594984286e+006 1.120188699496e+006 1.120008733992e+006 1.120102081329e+006 1.119954243004e+006 1.145119779322e+006 1.145158580565e+006 1.145278683255e+006 1.145306600487e+006 1.145589119169e+006 1.145749629063e+006 1.146038837252e+006 1.145611428727e+006 1.146041084643e+006 1.145589792327e+006 1.145405090528e+006 1.145829314263e+006 1.145358004136e+006 1.145382436762e+006 1.040728276691e+006 1.044711075125e+006 1.038115045220e+006 1.145657149242e+006 1.145232578610e+006 1.145472941872e+006 1.145646599148e+006 1.145720893629e+006 1.145847790589e+006 1.145285134515e+006 1.145770336184e+006 1.145776649674e+006 1.146021189675e+006 1.145878616842e+006 1.145178286070e+006 1.145217047431e+006 1.145284671873e+006 1.146005149989e+006 1.145516805979e+006 1.145538003240e+006 1.145350935890e+006 1.145545637927e+006 1.145210706622e+006 1.145154766075e+006 1.145166262044e+006 1.145458506752e+006 1.145216693999e+006 1.145637471299e+006 1.145374792141e+006 1.145190543519e+006 1.145437622254e+006 1.145354260910e+006 1.145261048011e+006 1.145823277265e+006 1.145707797090e+006 1.145485843495e+006 1.145391055120e+006 1.145386896734e+006 1.145035508734e+006 1.144856179219e+006 1.145557818245e+006 1.145603737496e+006 1.144905121112e+006 1.144792430279e+006 1.145075276997e+006 1.145429302407e+006 1.145625042557e+006 1.144832978559e+006 1.145068986125e+006 1.144724152210e+006 1.145844826682e+006 1.145280717645e+006 1.145528529135e+006 1.144501343093e+006 1.144604480811e+006 1.145828233320e+006 1.145382265123e+006 1.145175138571e+006 1.145610450240e+006 1.145070725546e+006 1.145071792785e+006 1.145348971637e+006 1.145375945171e+006 1.145321289493e+006 1.144951610758e+006 1.144949371384e+006 1.144876194842e+006 1.144605854189e+006 1.144794421808e+006 1.145206173784e+006 1.144874164290e+006 1.144714521679e+006 1.144793060973e+006 1.144819585022e+006 1.145907515789e+006 1.145828871796e+006 1.144917424588e+006 1.144984805533e+006 1.145263807608e+006 1.145442131815e+006 1.145539846971e+006 1.145747151523e+006 1.145272684284e+006 1.145256651097e+006 1.145740169090e+006 1.146040233310e+006 1.145522227315e+006 1.145269410362e+006 1.145391721559e+006 1.145332523589e+006 1.145083229568e+006 1.145156162234e+006 1.145364251219e+006 1.145022524736e+006 1.145298093679e+006 1.145549769342e+006 1.145541025888e+006 1.145254465098e+006 1.145182590876e+006 1.145536381038e+006 1.145611906327e+006 1.145439178096e+006 1.145228461247e+006 1.144945253986e+006 1.145000503266e+006 1.145079164772e+006 1.145902071144e+006 1.145619633249e+006 1.145208122163e+006 1.145295582606e+006 1.145702567087e+006 1.145094527723e+006 1.145082279676e+006 1.145250061720e+006 1.145331373848e+006 1.145761065361e+006 1.145403334984e+006 1.145785230307e+006 1.145567114561e+006 1.145608159550e+006 1.145118573633e+006 1.145436993951e+006 1.146020896684e+006 1.145443854045e+006 1.145456555475e+006 1.145846620875e+006 1.145268947351e+006 1.145204361774e+006 1.145230886032e+006 1.145625354011e+006 1.145414256503e+006 1.145867850636e+006 1.145939351565e+006 1.144984622477e+006 1.145057708690e+006 1.145241787655e+006 1.144992029011e+006 1.145438540108e+006 1.145048265608e+006 1.144607676672e+006 1.144711329183e+006 1.145362967239e+006 1.145886842198e+006 1.146067173455e+006 1.145024468685e+006 1.144867633767e+006 1.144897982429e+006 1.145113495341e+006 1.145082750263e+006 1.145092061930e+006 1.146051976038e+006 1.145985088603e+006 1.145646565563e+006 1.145077941962e+006 1.145126139330e+006 1.145596813563e+006 1.145577554949e+006 1.145555412595e+006 1.144950817404e+006 1.145007917396e+006 1.144859756198e+006 1.146056886287e+006 1.145281446908e+006 1.145514783050e+006 1.145780038679e+006 1.145629343175e+006 1.144896690728e+006 1.145273683717e+006 1.145280904860e+006 1.145303178275e+006 1.145287600006e+006 1.145399476409e+006 1.145082231658e+006 1.145277817708e+006 1.145646612505e+006 1.145219298803e+006 1.145755937698e+006 1.144942078067e+006 1.145169331685e+006 1.145925091509e+006 1.145560391700e+006 1.145998945432e+006 1.145167758341e+006 1.145085976901e+006 1.145577556777e+006 1.145411234579e+006 1.145364450730e+006 1.144822989167e+006 1.145176170828e+006 1.145419090521e+006 1.145314505799e+006 1.145425763947e+006 1.144867944659e+006 1.144864583542e+006 1.145095666649e+006 1.023945423213e+006 1.020953684913e+006 1.016339649423e+006 1.145220164102e+006 1.145347859854e+006 1.145929794661e+006 1.145791732056e+006 1.145501086869e+006 1.145725208802e+006 1.145239556621e+006 1.145479549846e+006 1.145646778318e+006 1.145362386745e+006 1.117911192854e+006 1.117921157731e+006 1.145345807946e+006 1.145539388401e+006 1.145770498346e+006 1.145397257610e+006 1.145205478045e+006 1.145297284937e+006 1.145309220723e+006 1.145298435984e+006 1.145506068793e+006 1.145683506277e+006 1.145054741858e+006 1.145012091718e+006 1.145194573740e+006 1.033987209833e+006 1.031198456731e+006 1.145772392284e+006 1.145271566851e+006 1.145316085637e+006 1.145544571669e+006 1.145150786257e+006 1.145299161495e+006 1.141468061817e+006 1.141356625124e+006 1.141463728415e+006 1.141356443370e+006 1.145470658587e+006 1.145282120136e+006 1.145096339933e+006 1.145279006804e+006 1.140931579545e+006 1.140901159806e+006 1.140598111562e+006 1.140898193976e+006 1.145077721181e+006 1.144764407559e+006 1.145618778127e+006 1.145047847059e+006 1.145651422002e+006 1.145448331771e+006 1.145868841367e+006 1.145828061694e+006 1.145297959695e+006 1.145224497438e+006 1.146033233724e+006 1.145376268436e+006 1.144697217122e+006 1.145035884876e+006 1.028363469422e+006 1.023945503948e+006 1.145473978311e+006 1.146069689753e+006 1.145795535826e+006 1.145848913613e+006 1.145415021115e+006 1.145434602998e+006 1.145112943480e+006 1.116772011248e+006 1.116762560498e+006 1.144800924574e+006 1.145564907058e+006 1.144306241454e+006 1.144539846223e+006 1.144397694574e+006 1.145102541741e+006 1.145848629387e+006 1.145755244443e+006 1.144568442103e+006 1.009901236099e+006 1.008363863569e+006 1.144795663224e+006 1.145535861613e+006 1.145531489308e+006 1.144753994744e+006 1.145544629378e+006 1.145492354446e+006 1.145607127058e+006 1.144877063924e+006 1.141779383824e+006 1.141524753418e+006 1.141368466144e+006 1.142309845004e+006 1.142104848648e+006 1.141507907070e+006 1.142330777560e+006 1.142072895768e+006 1.142405415735e+006 1.142614385006e+006 1.142382327321e+006 1.142638617828e+006 1.142507113349e+006 1.142776802678e+006 1.142878239042e+006 1.142913600037e+006 1.142893927963e+006 1.142921984598e+006 1.143067761309e+006 1.143340311896e+006 1.143300398839e+006 1.143341083682e+006 1.143307093205e+006 1.143459477664e+006 1.143626434637e+006 1.143460070951e+006 1.143623894572e+006 1.143455761902e+006 1.143986513775e+006 1.143986816354e+006 1.143928813343e+006 1.143981132711e+006 1.143919858878e+006 1.141722022334e+006 1.141715793669e+006 1.142059436710e+006 1.142210215246e+006 1.141712122194e+006 1.141720188147e+006 1.142044977327e+006 1.142195846822e+006 1.142651245979e+006 1.142871564043e+006 1.142667221263e+006 1.142874441375e+006 1.142978491151e+006 1.143106723876e+006 1.142982981986e+006 1.143115798142e+006 1.143393026917e+006 1.143497554238e+006 1.143396497736e+006 1.143492880247e+006 1.142960263029e+006 1.143131329097e+006 1.142818414649e+006 1.143445437877e+006 1.142692533845e+006 1.143242009177e+006 1.143126377976e+006 1.142956442898e+006 1.142815085537e+006 1.143440388122e+006 1.142691248597e+006 1.143239990057e+006 1.143427420326e+006 1.143601106204e+006 1.143509963144e+006 1.143419947649e+006 1.143592445429e+006 1.143504234371e+006 1.143960484511e+006 1.143965674040e+006 1.143873002583e+006 1.143955333753e+006 1.143973064044e+006 1.143869862808e+006 1.143904412634e+006 1.144156613924e+006 1.143851134338e+006 1.143927310446e+006 1.144219376605e+006 1.143900371028e+006 1.144351037444e+006 1.144232887707e+006 1.144377290356e+006 1.144275676171e+006 1.143600856436e+006 1.143917464297e+006 1.143606385535e+006 1.143901875532e+006 1.141894727630e+006 1.141485123379e+006 1.141695621141e+006 1.141891590100e+006 1.141485869106e+006 1.141695618068e+006 1.142308008619e+006 1.142252414217e+006 1.142300009188e+006 1.142253553019e+006 1.142984413796e+006 1.142983431174e+006 1.143351985046e+006 1.143346389809e+006 1.143409661183e+006 1.143392110699e+006 1.144905090738e+006 1.145239735820e+006 1.144917437991e+006 1.145356659155e+006 1.143933054405e+006 1.143917920422e+006 1.144384681613e+006 1.144403572930e+006 1.144052100914e+006 1.144346806329e+006 1.144049673172e+006 1.144310238792e+006 1.144014346037e+006 1.143990715031e+006 1.143933213812e+006 1.143984970568e+006 1.143912054315e+006 1.144003194953e+006 1.145154181812e+006 1.144078883814e+006 1.144911001628e+006 1.145259055862e+006 1.144787547584e+006 1.144850390545e+006 1.144333896240e+006 1.144451689160e+006 1.144369896619e+006 1.144352846139e+006 1.144375902597e+006 1.144310755024e+006 1.144418650806e+006 1.144226714189e+006 1.144375184900e+006 1.144429307468e+006 1.144355727859e+006 1.144462589509e+006 1.144390873608e+006 1.144344506290e+006 1.144829066379e+006 1.145553360947e+006 1.144965388589e+006 1.144796934612e+006 1.145433725229e+006 1.145313095534e+006 1.144775674074e+006 1.000000000000e+006 1.000000000000e+006 1.008363809531e+006 1.145382751831e+006 1.145697343050e+006 1.145443376276e+006 1.145624821744e+006 1.145525391600e+006 1.145524495885e+006 1.145530564775e+006 1.145480798983e+006 1.145520830122e+006 1.145226481099e+006 1.144672383757e+006 1.144646325739e+006 1.145530370272e+006 1.145416855947e+006 1.144712375132e+006 1.144806318949e+006 1.145617487888e+006 1.144777182642e+006 1.144634607211e+006 1.144932140048e+006 1.145097825497e+006 1.144391944789e+006 1.145469872904e+006 1.115165572579e+006 1.115173496164e+006 1.145875359641e+006 1.140303213529e+006 1.140303862959e+006 1.144484299446e+006 1.145383545638e+006 1.145550682904e+006 1.144397948739e+006 1.145378607970e+006 1.145234134956e+006 1.145680784643e+006 1.144414416949e+006 1.144323279990e+006 1.144424902129e+006 1.145186709581e+006 1.049376164422e+006 1.046560832640e+006 1.145412941727e+006 1.144964908780e+006 1.051001361210e+006 1.145517916778e+006 1.145304116140e+006 1.145518467032e+006 1.144610053278e+006 1.145305370246e+006 1.016339641045e+006 1.145875877018e+006 1.145827559847e+006 1.145320661839e+006 1.144655655687e+006 1.145789942191e+006 1.141426715487e+006 1.141425449939e+006 1.145865809784e+006 1.145377773689e+006 1.145086616371e+006 1.145657187732e+006 1.145748951470e+006 1.145451901451e+006 1.145493402739e+006 1.145625588188e+006 1.145543911093e+006 1.145282143274e+006 1.145180381519e+006 1.145334719323e+006 1.145525262461e+006 1.145556066156e+006 1.145546083946e+006 1.145202548604e+006 1.144975999947e+006 1.145470745760e+006 1.144602512196e+006 1.054535235238e+006 1.144763683975e+006 1.027567983312e+006 1.144447357002e+006 1.145242933758e+006 1.144724068424e+006 1.145498783268e+006 1.144758534843e+006 1.145623671226e+006 1.144300356370e+006 1.145637442462e+006 1.145670256574e+006 1.145537548395e+006 1.145575245520e+006 1.145565040577e+006 1.145528671718e+006 1.051001469699e+006 1.057000071604e+006 1.044711096193e+006 1.060011339050e+006 1.145471149972e+006 1.057204777812e+006 1.040862957196e+006 1.145266627830e+006 1.145450081688e+006 1.145527540581e+006 1.145568655458e+006 1.056999997822e+006 1.145446292928e+006 1.145441159186e+006 1.140535913488e+006 1.140536896243e+006 1.142029963181e+006 1.142029061120e+006 1.145550900189e+006 1.145443008667e+006 1.142309555504e+006 1.142304576014e+006 1.142134329157e+006 1.142150328238e+006 1.145429825769e+006 1.145496535504e+006 
        </DataArray>
        <DataArray type="Float64" Name="MEAN_PRESSURE" format="ascii">