<?xml version="1.0"?>
<VTKFile type="UnstructuredGrid" version="0.1" byte_order="LittleEndian">
  <UnstructuredGrid>
    <Piece NumberOfPoints="2153" NumberOfCells="4144">
      <Points>
        <DataArray type="Float64" NumberOfComponents="3" format="ascii">
          0.000000000000e+000 0.000000000000e+000 0.000000000000e+000
          1.800000000000e+002 0.000000000000e+000 0.000000000000e+000
          1.800000000000e+002 2.000000000000e+001 0.000000000000e+000
          2.000000000000e+002 2.000000000000e+001 0.000000000000e+000
          2.000000000000e+002 2.000000000000e+002 0.000000000000e+000
          2.000000000000e+001 2.000000000000e+002 0.000000000000e+000
          2.000000000000e+001 1.800000000000e+002 0.000000000000e+000
          0.000000000000e+000 1.800000000000e+002 0.000000000000e+000
          4.999999999998e+000 0.000000000000e+000 0.000000000000e+000
          9.999999999995e+000 0.000000000000e+000 0.000000000000e+000
          1.499999999999e+001 0.000000000000e+000 0.000000000000e+000
          1.999999999999e+001 0.000000000000e+000 0.000000000000e+000
          2.499999999999e+001 0.000000000000e+000 0.000000000000e+000
          2.999999999998e+001 0.000000000000e+000 0.000000000000e+000
          3.499999999997e+001 0.000000000000e+000 0.000000000000e+000
          3.999999999996e+001 0.000000000000e+000 0.000000000000e+000
          4.499999999995e+001 0.000000000000e+000 0.000000000000e+000
          4.999999999994e+001 0.000000000000e+000 0.000000000000e+000
          5.499999999993e+001 0.000000000000e+000 0.000000000000e+000
          5.999999999992e+001 0.000000000000e+000 0.000000000000e+000
          6.499999999991e+001 0.000000000000e+000 0.000000000000e+000
          6.999999999990e+001 0.000000000000e+000 0.000000000000e+000
          7.499999999989e+001 0.000000000000e+000 0.000000000000e+000
          7.999999999989e+001 0.000000000000e+000 0.000000000000e+000
          8.499999999988e+001 0.000000000000e+000 0.000000000000e+000
          8.999999999987e+001 0.000000000000e+000 0.000000000000e+000
          9.499999999990e+001 0.000000000000e+000 0.000000000000e+000
          9.999999999993e+001 0.000000000000e+000 0.000000000000e+000
          1.050000000000e+002 0.000000000000e+000 0.000000000000e+000
          1.100000000000e+002 0.000000000000e+000 0.000000000000e+000
          1.150000000000e+002 0.000000000000e+000 0.000000000000e+000
          1.200000000000e+002 0.000000000000e+000 0.000000000000e+000
          1.250000000001e+002 0.000000000000e+000 0.000000000000e+000
          1.300000000001e+002 0.000000000000e+000 0.000000000000e+000
          1.350000000001e+002 0.000000000000e+000 0.000000000000e+000
          1.400000000001e+002 0.000000000000e+000 0.000000000000e+000
          1.450000000001e+002 0.000000000000e+000 0.000000000000e+000
          1.500000000001e+002 0.000000000000e+000 0.000000000000e+000
          1.550000000000e+002 0.000000000000e+000 0.000000000000e+000
          1.600000000000e+002 0.000000000000e+000 0.000000000000e+000
          1.650000000000e+002 0.000000000000e+000 0.000000000000e+000
          1.700000000000e+002 0.000000000000e+000 0.000000000000e+000
          1.750000000000e+002 0.000000000000e+000 0.000000000000e+000
          1.800000000000e+002 4.999999999991e+000 0.000000000000e+000
          1.800000000000e+002 9.999999999985e+000 0.000000000000e+000
          1.800000000000e+002 1.499999999999e+001 0.000000000000e+000
          1.850000000000e+002 2.000000000000e+001 0.000000000000e+000
          1.900000000000e+002 2.000000000000e+001 0.000000000000e+000
          1.950000000000e+002 2.000000000000e+001 0.000000000000e+000
          2.000000000000e+002 2.500000000001e+001 0.000000000000e+000
          2.000000000000e+002 3.000000000001e+001 0.000000000000e+000
          2.000000000000e+002 3.500000000000e+001 0.000000000000e+000
          2.000000000000e+002 4.000000000000e+001 0.000000000000e+000
          2.000000000000e+002 4.500000000000e+001 0.000000000000e+000
          2.000000000000e+002 4.999999999999e+001 0.000000000000e+000
          2.000000000000e+002 5.499999999999e+001 0.000000000000e+000
          2.000000000000e+002 5.999999999998e+001 0.000000000000e+000
          2.000000000000e+002 6.499999999998e+001 0.000000000000e+000
          2.000000000000e+002 6.999999999997e+001 0.000000000000e+000
          2.000000000000e+002 7.499999999997e+001 0.000000000000e+000
          2.000000000000e+002 7.999999999996e+001 0.000000000000e+000
          2.000000000000e+002 8.499999999996e+001 0.000000000000e+000
          2.000000000000e+002 8.999999999996e+001 0.000000000000e+000
          2.000000000000e+002 9.499999999995e+001 0.000000000000e+000
          2.000000000000e+002 9.999999999995e+001 0.000000000000e+000
          2.000000000000e+002 1.049999999999e+002 0.000000000000e+000
          2.000000000000e+002 1.099999999999e+002 0.000000000000e+000
          2.000000000000e+002 1.150000000000e+002 0.000000000000e+000
          2.000000000000e+002 1.200000000000e+002 0.000000000000e+000
          2.000000000000e+002 1.250000000000e+002 0.000000000000e+000
          2.000000000000e+002 1.300000000001e+002 0.000000000000e+000
          2.000000000000e+002 1.350000000001e+002 0.000000000000e+000
          2.000000000000e+002 1.400000000001e+002 0.000000000000e+000
          2.000000000000e+002 1.450000000000e+002 0.000000000000e+000
          2.000000000000e+002 1.500000000000e+002 0.000000000000e+000
          2.000000000000e+002 1.550000000000e+002 0.000000000000e+000
          2.000000000000e+002 1.600000000000e+002 0.000000000000e+000
          2.000000000000e+002 1.650000000000e+002 0.000000000000e+000
          2.000000000000e+002 1.700000000000e+002 0.000000000000e+000
          2.000000000000e+002 1.750000000000e+002 0.000000000000e+000
          2.000000000000e+002 1.800000000000e+002 0.000000000000e+000
          2.000000000000e+002 1.850000000000e+002 0.000000000000e+000
          2.000000000000e+002 1.900000000000e+002 0.000000000000e+000
          2.000000000000e+002 1.950000000000e+002 0.000000000000e+000
          1.950000000000e+002 2.000000000000e+002 0.000000000000e+000
          1.900000000000e+002 2.000000000000e+002 0.000000000000e+000
          1.850000000000e+002 2.000000000000e+002 0.000000000000e+000
          1.800000000000e+002 2.000000000000e+002 0.000000000000e+000
          1.750000000000e+002 2.000000000000e+002 0.000000000000e+000
          1.700000000001e+002 2.000000000000e+002 0.000000000000e+000
          1.650000000001e+002 2.000000000000e+002 0.000000000000e+000
          1.600000000001e+002 2.000000000000e+002 0.000000000000e+000
          1.550000000001e+002 2.000000000000e+002 0.000000000000e+000
          1.500000000001e+002 2.000000000000e+002 0.000000000000e+000
          1.450000000001e+002 2.000000000000e+002 0.000000000000e+000
          1.400000000001e+002 2.000000000000e+002 0.000000000000e+000
          1.350000000001e+002 2.000000000000e+002 0.000000000000e+000
          1.300000000001e+002 2.000000000000e+002 0.000000000000e+000
          1.250000000001e+002 2.000000000000e+002 0.000000000000e+000
          1.200000000001e+002 2.000000000000e+002 0.000000000000e+000
          1.150000000001e+002 2.000000000000e+002 0.000000000000e+000
          1.100000000002e+002 2.000000000000e+002 0.000000000000e+000
          1.050000000001e+002 2.000000000000e+002 0.000000000000e+000
          1.000000000001e+002 2.000000000000e+002 0.000000000000e+000
          9.500000000006e+001 2.000000000000e+002 0.000000000000e+000
          9.000000000003e+001 2.000000000000e+002 0.000000000000e+000
          8.500000000000e+001 2.000000000000e+002 0.000000000000e+000
          7.999999999997e+001 2.000000000000e+002 0.000000000000e+000
          7.499999999994e+001 2.000000000000e+002 0.000000000000e+000
          6.999999999992e+001 2.000000000000e+002 0.000000000000e+000
          6.499999999992e+001 2.000000000000e+002 0.000000000000e+000
          5.999999999993e+001 2.000000000000e+002 0.000000000000e+000
          5.499999999994e+001 2.000000000000e+002 0.000000000000e+000
          4.999999999995e+001 2.000000000000e+002 0.000000000000e+000
          4.499999999996e+001 2.000000000000e+002 0.000000000000e+000
          3.999999999997e+001 2.000000000000e+002 0.000000000000e+000
          3.499999999997e+001 2.000000000000e+002 0.000000000000e+000
          2.999999999998e+001 2.000000000000e+002 0.000000000000e+000
          2.499999999999e+001 2.000000000000e+002 0.000000000000e+000
          2.000000000000e+001 1.950000000000e+002 0.000000000000e+000
          2.000000000000e+001 1.900000000000e+002 0.000000000000e+000
          2.000000000000e+001 1.850000000000e+002 0.000000000000e+000
          1.500000000000e+001 1.800000000000e+002 0.000000000000e+000
          1.000000000000e+001 1.800000000000e+002 0.000000000000e+000
          5.000000000000e+000 1.800000000000e+002 0.000000000000e+000
          0.000000000000e+000 1.750000000000e+002 0.000000000000e+000
          0.000000000000e+000 1.700000000000e+002 0.000000000000e+000
          0.000000000000e+000 1.650000000000e+002 0.000000000000e+000
          0.000000000000e+000 1.600000000000e+002 0.000000000000e+000
          0.000000000000e+000 1.550000000000e+002 0.000000000000e+000
          0.000000000000e+000 1.500000000001e+002 0.000000000000e+000
          0.000000000000e+000 1.450000000001e+002 0.000000000000e+000
          0.000000000000e+000 1.400000000001e+002 0.000000000000e+000
          0.000000000000e+000 1.350000000001e+002 0.000000000000e+000
          0.000000000000e+000 1.300000000001e+002 0.000000000000e+000
          0.000000000000e+000 1.250000000001e+002 0.000000000000e+000
          0.000000000000e+000 1.200000000001e+002 0.000000000000e+000
          0.000000000000e+000 1.150000000001e+002 0.000000000000e+000
          0.000000000000e+000 1.100000000001e+002 0.000000000000e+000
[...]
      <PointData Scalars="LIQUID_PRESSURE">
        <DataArray type="Float64" Name="LIQUID_PRESSURE" format="ascii">
          9.999999999079e+005 1.000019144878e+006 1.000013245302e+006 1.000018040470e+006 9.999999999078e+005 1.000000000000e+006 1.000000000000e+006 1.000000000000e+006 9.999999999078e+005 9.999999999077e+005 9.999999999074e+005 9.999999999070e+005 9.999999999065e+005 9.999999999059e+005 9.999999999053e+005 9.999999999045e+005 9.999999999036e+005 9.999999999025e+005 9.999999999014e+005 9.999999999002e+005 9.999999998988e+005 9.999999998974e+005 9.999999998958e+005 9.999999998941e+005 9.999999998923e+005 9.999999998903e+005 9.999999998883e+005 9.999999998860e+005 9.999999998837e+005 9.999999998811e+005 9.999999998784e+005 9.999999998756e+005 9.999999998725e+005 9.999999998690e+005 9.999999998664e+005 9.999999998607e+005 9.999999998237e+005 1.000000000239e+006 9.999999976102e+005 1.000000006692e+006 9.999999946220e+005 9.999997984819e+005 1.000002303206e+006 1.000020179775e+006 1.000018770079e+006 1.000018987846e+006 1.000019548770e+006 1.000019877541e+006 1.000019831014e+006 1.000002756377e+006 9.999997846317e+005 9.999999997549e+005 1.000000002232e+006 9.999999990219e+005 1.000000000021e+006 9.999999998283e+005 9.999999998660e+005 9.999999998647e+005 9.999999998690e+005 9.999999998722e+005 9.999999998753e+005 9.999999998783e+005 9.999999998810e+005 9.999999998835e+005 9.999999998859e+005 9.999999998881e+005 9.999999998902e+005 9.999999998922e+005 9.999999998940e+005 9.999999998957e+005 9.999999998973e+005 9.999999998987e+005 9.999999999001e+005 9.999999999013e+005 9.999999999025e+005 9.999999999035e+005 9.999999999044e+005 9.999999999052e+005 9.999999999059e+005 9.999999999065e+005 9.999999999069e+005 9.999999999073e+005 9.999999999076e+005 9.999999999077e+005 9.999999999079e+005 9.999999999080e+005 9.999999999083e+005 9.999999999087e+005 9.999999999091e+005 9.999999999097e+005 9.999999999104e+005 9.999999999112e+005 9.999999999121e+005 9.999999999131e+005 9.999999999143e+005 9.999999999155e+005 9.999999999169e+005 9.999999999183e+005 9.999999999199e+005 9.999999999216e+005 9.999999999234e+005 9.999999999254e+005 9.999999999275e+005 9.999999999297e+005 9.999999999321e+005 9.999999999346e+005 9.999999999373e+005 9.999999999402e+005 9.999999999433e+005 9.999999999466e+005 9.999999999502e+005 9.999999999541e+005 9.999999999583e+005 9.999999999629e+005 9.999999999678e+005 9.999999999733e+005 9.999999999793e+005 9.999999999858e+005 9.999999999928e+005 1.000000000000e+006 1.000000000000e+006 1.000000000000e+006 1.000000000000e+006 1.000000000000e+006 1.000000000000e+006 9.999999999928e+005 9.999999999858e+005 9.999999999793e+005 9.999999999733e+005 9.999999999679e+005 9.999999999629e+005 9.999999999583e+005 9.999999999541e+005 9.999999999502e+005 9.999999999466e+005 9.999999999433e+005 9.999999999402e+005 9.999999999373e+005 9.999999999346e+005 9.999999999321e+005 9.999999999297e+005 9.999999999275e+005 9.999999999254e+005 9.999999999235e+005 9.999999999216e+005 9.999999999199e+005 9.999999999184e+005 9.999999999169e+005 9.999999999156e+005 9.999999999143e+005 9.999999999132e+005 9.999999999122e+005 9.999999999113e+005 9.999999999105e+005 9.999999999098e+005 9.999999999092e+005 9.999999999087e+005 9.999999999084e+005 9.999999999081e+005 9.999999999079e+005 9.999999999078e+005 9.999999999079e+005 9.999999999079e+005 9.999999998789e+005 9.999999999371e+005 9.999999998908e+005 9.999999999247e+005 9.999999999236e+005 9.999999998920e+005 9.999999999078e+005 9.999999999079e+005 9.999999998727e+005 9.999999999425e+005 9.999999999172e+005 9.999999998987e+005 9.999999999125e+005 9.999999999035e+005 9.999999998949e+005 9.999999999217e+005 9.999999998938e+005 9.999999999568e+005 9.999999998995e+005 9.999999999159e+005 9.999999999392e+005 9.999999998771e+005 9.999999998935e+005 9.999999999231e+005 9.999999999022e+005 9.999999999136e+005 9.999999999625e+005 9.999999998051e+005 9.999999998826e+005 9.999999999329e+005 9.999999999127e+005 9.999999999028e+005 9.999999999321e+005 9.999999998918e+005 9.999999999239e+005 9.999999998994e+005 9.999999999149e+005 9.999999998862e+005 9.999999999034e+005 9.999999999124e+005 9.999999998816e+005 9.999999999131e+005 9.999999999478e+005 9.999999998687e+005 9.999999998906e+005 9.999999999248e+005 9.999999999078e+005 9.999999999079e+005 9.999999999043e+005 9.999999999055e+005 9.999999999146e+005 9.999999999099e+005 9.999999999330e+005 9.999999999013e+005 9.999999999105e+005 9.999999999321e+005 9.999999998838e+005 9.999999999043e+005 9.999999999510e+005 9.999999998667e+005 9.999999999139e+005 9.999999999018e+005 9.999999999435e+005 9.999999998726e+005 9.999999999727e+005 1.000000011652e+006 9.999999999523e+005 9.999999998647e+005 9.999999999203e+005 9.999999999101e+005 9.999999999055e+005 9.999999998887e+005 9.999999998960e+005 9.999999998826e+005 9.999999999327e+005 9.999999999192e+005 9.999999999084e+005 9.999999999172e+005 9.999999998984e+005 9.999999999274e+005 9.999999998956e+005 9.999999999072e+005 9.999999999056e+005 9.999999999100e+005 9.999999999005e+005 9.999999998940e+005 9.999999999219e+005 9.999999998739e+005 9.999999999421e+005 9.999999998964e+005 9.999999999195e+005 9.999999999193e+005 9.999999999681e+005 1.000000007661e+006 9.999999998962e+005 9.999999999305e+005 9.999999998851e+005 9.999999999409e+005 9.999999998749e+005 9.999999999151e+005 9.999999999778e+005 9.999999736247e+005 9.999999999130e+005 9.999999999186e+005 9.999999998895e+005 9.999999999093e+005 9.999999999401e+005 9.999999999263e+005 9.999999999032e+005 9.999999999002e+005 9.999999999156e+005 9.999999998979e+005 9.999999998855e+005 9.999999999298e+005 9.999999999615e+005 9.999999999321e+005 9.999999999208e+005 9.999999998999e+005 9.999999998751e+005 9.999999999260e+005 9.999999999517e+005 9.999999998643e+005 9.999999998878e+005 9.999999999269e+005 9.999999999635e+005 9.999999998801e+005 9.999999999131e+005 9.999999999057e+005 9.999999999213e+005 9.999999998942e+005 9.999999999069e+005 9.999999998950e+005 9.999999998797e+005 9.999999999066e+005 9.999999999280e+005 9.999999998877e+005 9.999999999485e+005 9.999999998639e+005 9.999999999107e+005 9.999999999178e+005 9.999999999123e+005 9.999999999034e+005 9.999999999027e+005 9.999999999078e+005 9.999999999079e+005 9.999999998774e+005 9.999999999381e+005 9.999999998851e+005 9.999999999102e+005 9.999999999260e+005 9.999999998894e+005 9.999999999049e+005 9.999999999324e+005 9.999999998836e+005 9.999999998796e+005 9.999999999360e+005 9.999999999309e+005 9.999999999014e+005 9.999999999026e+005 9.999999999057e+005 9.999999999029e+005 9.999999999101e+005 9.999999999144e+005 9.999999999091e+005 9.999999999065e+005 9.999999999581e+005 9.999999998859e+005 9.999999998962e+005 9.999999999132e+005 9.999999998926e+005 9.999999999232e+005 9.999999999266e+005 9.999999999079e+005 9.999999999105e+005 9.999999999037e+005 9.999999999120e+005 9.999999999073e+005 9.999999999452e+005 9.999999998675e+005 9.999999999079e+005 9.999999998906e+005 9.999999998916e+005 9.999999999192e+005 9.999999999151e+005 9.999999999108e+005 9.999999999150e+005 9.999999999006e+005 9.999999999198e+005 9.999999999149e+005 9.999999999176e+005 9.999999998960e+005 9.999999999067e+005 9.999999999090e+005 9.999999998982e+005 9.999999998977e+005 9.999999998871e+005 9.999999999083e+005 9.999999999073e+005 9.999999998745e+005 9.999999999173e+005 9.999999999412e+005 9.999999999204e+005 9.999999998951e+005 9.999999999044e+005 9.999999999385e+005 9.999999999378e+005 9.999999999048e+005 9.999999998668e+005 9.999999999481e+005 9.999999999098e+005 9.999999999260e+005 9.999999998896e+005 9.999999999787e+005 9.999999319301e+005 9.999999999478e+005 9.999999998678e+005 9.999999999360e+005 9.999999998798e+005 9.999999999076e+005 9.999999999105e+005 9.999999998791e+005 9.999999998780e+005 9.999999999375e+005 9.999999999098e+005 9.999998285375e+005 9.999999999845e+005 9.999999999012e+005 9.999999998703e+005 9.999999999456e+005 9.999999999019e+005 9.999999998840e+005 9.999999999300e+005 9.999999999059e+005 9.999999998904e+005 9.999999999044e+005 9.999999999234e+005 9.999999998876e+005 9.999999999280e+005 9.999999998997e+005 9.999999999426e+005 9.999999998972e+005 9.999999999095e+005 9.999999998731e+005 9.999999999559e+005 9.999999998989e+005 9.999999999039e+005 9.999999999364e+005 9.999999998793e+005 9.999999999549e+005 9.999999998597e+005 9.999999999177e+005 9.999999998720e+005 9.999999998992e+005 9.999999999165e+005 9.999999999803e+005 9.999997959143e+005 9.999999998545e+005 9.999999998849e+005 9.999999999279e+005 9.999999999015e+005 9.999999999061e+005 9.999999999278e+005 9.999999998879e+005 9.999999999496e+005 9.999999998727e+005 9.999999999700e+005 9.999999993171e+005 9.999999999652e+005 9.999999997498e+005 9.999999999150e+005 9.999999999441e+005 9.999999999157e+005 9.999999999070e+005 9.999999999565e+005 9.999999998425e+005 9.999999999563e+005 9.999999999336e+005 9.999999999019e+005 9.999999999120e+005 9.999999999109e+005 9.999999999303e+005 9.999999998961e+005 9.999999998843e+005 9.999999999560e+005 9.999999998497e+005 9.999999998791e+005 9.999999999224e+005 9.999999999286e+005 9.999999999018e+005 9.999999999140e+005 9.999999998977e+005 9.999999999181e+005 9.999999999204e+005 9.999999999087e+005 9.999999999216e+005 9.999999999119e+005 9.999999999190e+005 9.999999998966e+005 9.999999999102e+005 9.999999998981e+005 9.999999999111e+005 9.999999999045e+005 9.999999998935e+005 9.999999998910e+005 9.999999999246e+005 9.999999999129e+005 9.999999998927e+005 9.999999999446e+005 9.999999999318e+005 9.999999998840e+005 9.999999998907e+005 9.999999999241e+005 9.999999999222e+005 9.999999999101e+005 9.999999999064e+005 9.999999999872e+005 9.999997120418e+005 9.999999999718e+005 1.000000002786e+006 9.999999999343e+005 9.999999998881e+005 9.999999999031e+005 9.999999999225e+005 9.999999999230e+005 9.999999998988e+005 9.999999999141e+005 9.999999998947e+005 9.999999998971e+005 9.999999999162e+005 9.999999999095e+005 9.999999998870e+005 9.999999999042e+005 9.999999999007e+005 9.999999999052e+005 9.999999999015e+005 9.999999999237e+005 9.999999999085e+005 9.999999999071e+005 9.999999999063e+005 9.999999998989e+005 9.999999998959e+005 9.999999999117e+005 9.999999999199e+005 9.999999998960e+005 9.999999999049e+005 9.999999999107e+005 9.999999999326e+005 9.999999999056e+005 9.999999998750e+005 9.999999999406e+005 9.999999999094e+005 9.999999999149e+005 9.999999999167e+005 9.999999999143e+005 9.999999999368e+005 9.999999998950e+005 9.999999999207e+005 9.999999998702e+005 9.999999998999e+005 9.999999998664e+005 9.999999999493e+005 9.999999999060e+005 9.999999998915e+005 9.999999998932e+005 9.999999999093e+005 9.999999999052e+005 9.999999999323e+005 9.999999999188e+005 9.999999998952e+005 9.999999999035e+005 9.999999999112e+005 9.999999999110e+005 9.999999999688e+005 1.000000001938e+006 9.999999998787e+005 9.999999999369e+005 9.999999998838e+005 9.999999999172e+005 9.999999998778e+005 9.999999999298e+005 9.999999998860e+005 9.999999999682e+005 9.999999991698e+005 9.999999999634e+005 9.999999999207e+005 9.999999999079e+005 9.999999999073e+005 9.999999999085e+005 9.999999994004e+005 9.999999999078e+005 9.999999998816e+005 9.999999999214e+005 9.999999999271e+005 9.999999999172e+005 9.999999999061e+005 9.999999998941e+005 9.999999998930e+005 9.999999998824e+005 9.999999999154e+005 9.999999999129e+005 9.999999998638e+005 9.999999998831e+005 9.999999999330e+005 9.999999999075e+005 9.999999999046e+005 9.999999998707e+005 9.999999999274e+005 9.999999999177e+005 9.999999999155e+005 9.999999999456e+005 9.999999999167e+005 9.999999999344e+005 9.999999999098e+005 9.999999999006e+005 9.999999999168e+005 9.999999998988e+005 9.999999998880e+005 9.999999999003e+005 9.999999999867e+005 1.000000425083e+006 9.999999999371e+005 9.999999999115e+005 9.999999999268e+005 9.999999999191e+005 9.999999998963e+005 9.999999998900e+005 9.999999999258e+005 9.999999999279e+005 9.999999999415e+005 9.999999998742e+005 9.999999999124e+005 9.999999999235e+005 9.999999998921e+005 9.999999999070e+005 9.999999999567e+005 9.999999998800e+005 9.999999998829e+005 9.999999999326e+005 9.999999998866e+005 9.999999998884e+005 9.999999999137e+005 9.999999999019e+005 9.999999999100e+005 9.999999999056e+005 9.999999999187e+005 9.999999999285e+005 9.999999999502e+005 9.999999999360e+005 9.999999998866e+005 9.999999999289e+005 9.999999999018e+005 9.999999999090e+005 9.999999999196e+005 9.999999999071e+005 9.999999999044e+005 9.999999998984e+005 9.999999999078e+005 9.999999999079e+005 9.999999999606e+005 9.999999999622e+005 9.999999998687e+005 9.999999999232e+005 9.999999999054e+005 9.999999999022e+005 9.999999998975e+005 9.999999999004e+005 9.999999998996e+005 9.999999999161e+005 9.999999999148e+005 9.999999999223e+005 9.999999998932e+005 9.999999999118e+005 9.999999999242e+005 9.999999999432e+005 9.999999999022e+005 9.999999999514e+005 9.999999998554e+005 9.999999998826e+005 9.999999999134e+005 9.999999999022e+005 9.999999999040e+005 9.999999998901e+005 9.999999999082e+005 9.999999999182e+005 9.999999999137e+005 9.999999999236e+005 9.999999998919e+005 9.999999998923e+005 9.999999998888e+005 9.999999998907e+005 9.999999999252e+005 9.999999999116e+005 9.999999999150e+005 9.999999999292e+005 9.999999999518e+005 9.999999998558e+005 9.999999998940e+005 9.999999998753e+005 9.999999998798e+005 9.999999998886e+005 9.999999999271e+005 9.999999999879e+005 1.000000733905e+006 9.999999999109e+005 9.999999998872e+005 9.999999999126e+005 9.999999998723e+005 9.999999999059e+005 9.999999999099e+005 9.999999999137e+005 9.999999999005e+005 9.999999998493e+005 9.999999999556e+005 9.999999998714e+005 9.999999999444e+005 9.999999999080e+005 9.999999999073e+005 9.999999999129e+005 9.999999999225e+005 9.999999998811e+005 9.999999998809e+005 9.999999998755e+005 9.999999999407e+005 9.999999999071e+005 9.999999999027e+005 9.999999999042e+005 9.999999999576e+005 9.999999998520e+005 9.999999998974e+005 9.999999999647e+005 9.999999999001e+005 9.999999998789e+005 1.000000000961e+006 9.999999999781e+005 9.999999999003e+005 9.999999999304e+005 9.999999999626e+005 9.999999993139e+005 9.999999998853e+005 9.999999999303e+005 9.999999999127e+005 9.999999999120e+005 9.999999999067e+005 9.999999998892e+005 9.999999999101e+005 9.999999999474e+005 9.999999998693e+005 9.999999999209e+005 9.999999998948e+005 9.999999999333e+005 9.999999999087e+005 9.999999999096e+005 9.999999999162e+005 9.999999999722e+005 1.000000005706e+006 9.999999999521e+005 9.999999998670e+005 9.999999999151e+005 9.999999999048e+005 9.999999999519e+005 9.999999999795e+005 9.999999746954e+005 9.999999999076e+005 9.999999998874e+005 9.999999999352e+005 9.999999999083e+005 9.999999999410e+005 9.999999999062e+005 9.999999999618e+005 9.999999999246e+005 9.999999999063e+005 9.999999998925e+005 9.999999998847e+005 9.999999998833e+005 9.999999998896e+005 9.999999998976e+005 9.999999999392e+005 9.999999999069e+005 9.999999998949e+005 9.999999998744e+005 9.999999999422e+005 9.999999999039e+005 9.999999999175e+005 9.999999999026e+005 9.999999998776e+005 9.999999999080e+005 9.999999998919e+005 9.999999999123e+005 9.999999998738e+005 9.999999999412e+005 9.999999999110e+005 9.999999998992e+005 9.999999999088e+005 9.999999999095e+005 9.999999999287e+005 9.999999998871e+005 9.999999999044e+005 9.999999999084e+005 9.999999999259e+005 9.999999999126e+005 9.999999999113e+005 9.999999999209e+005 9.999999999195e+005 9.999999999274e+005 9.999999999045e+005 9.999999999342e+005 9.999999999023e+005 9.999999999002e+005 9.999999999037e+005 9.999999998761e+005 9.999999999039e+005 9.999999998708e+005 9.999999999469e+005 9.999999998988e+005 9.999999999170e+005 9.999999999072e+005 9.999999999172e+005 9.999999999373e+005 9.999999998807e+005 9.999999999201e+005 9.999999999051e+005 9.999999999149e+005 9.999999999733e+005 9.999999911456e+005 9.999999999464e+005 9.999999999304e+005 9.999999998854e+005 9.999999999013e+005 9.999999998878e+005 9.999999999263e+005 9.999999999121e+005 9.999999999035e+005 9.999999999166e+005 9.999999999181e+005 9.999999999071e+005 9.999999999033e+005 9.999999999061e+005 9.999999998650e+005 9.999999999507e+005 9.999999998687e+005 9.999999999075e+005 9.999999999075e+005 9.999999999081e+005 9.999999999081e+005 9.999999999213e+005 9.999999999336e+005 9.999999999091e+005 9.999999999177e+005 9.999999999331e+005 9.999999999242e+005 9.999999999097e+005 9.999999999030e+005 9.999999999128e+005 9.999999999245e+005 9.999999999091e+005 9.999999999386e+005 9.999999999063e+005 9.999999999114e+005 9.999999999092e+005 9.999999999002e+005 9.999999999081e+005 9.999999999158e+005 9.999999999337e+005 9.999999999351e+005 9.999999999114e+005 9.999999998795e+005 9.999999999356e+005 9.999999999079e+005 9.999999999404e+005 9.999999999680e+005 9.999999999045e+005 9.999999999033e+005 9.999999998927e+005 9.999999999286e+005 9.999999999638e+005 9.999999991866e+005 9.999999999254e+005 9.999999998901e+005 9.999999999131e+005 9.999999998756e+005 9.999999999130e+005 9.999999999071e+005 9.999999998968e+005 9.999999998974e+005 9.999999998926e+005 9.999999998931e+005 9.999999999227e+005 1.000000857676e+006 9.999999999902e+005 9.999999998807e+005 9.999999998693e+005 9.999999999447e+005 9.999999998973e+005 9.999999999098e+005 9.999999998689e+005 9.999999998640e+005 9.999999998962e+005 9.999999998991e+005 9.999999999000e+005 9.999999999033e+005 9.999999999036e+005 9.999999999090e+005 9.999999999066e+005 9.999999999022e+005 9.999999999117e+005 9.999999999040e+005 9.999999999357e+005 9.999999999009e+005 9.999999998949e+005 9.999999999253e+005 9.999999999099e+005 9.999999993234e+005 9.999999993231e+005 9.999999999651e+005 9.999999999066e+005 9.999999999185e+005 9.999999999337e+005 9.999999998499e+005 9.999999999463e+005 9.999999999001e+005 9.999999998977e+005 9.999999999447e+005 9.999999998712e+005 9.999999999021e+005 9.999999999454e+005 9.999999998701e+005 9.999999999389e+005 9.999999998769e+005 9.999999998953e+005 9.999999999123e+005 9.999999999085e+005 9.999999999522e+005 9.999999998663e+005 9.999999998821e+005 9.999999999465e+005 9.999999999032e+005 9.999999998998e+005 9.999999999379e+005 9.999999998920e+005 9.999999999745e+005 9.999999648317e+005 9.999999999421e+005 9.999999999157e+005 9.999999999096e+005 9.999999998621e+005 9.999999998962e+005 9.999999999539e+005 9.999999999193e+005 9.999999999117e+005 9.999999999065e+005 9.999999999346e+005 9.999999999216e+005 9.999999998750e+005 9.999999999172e+005 9.999999999219e+005 9.999999999202e+005 9.999999999299e+005 9.999999999406e+005 9.999999999068e+005 9.999999999090e+005 9.999999999043e+005 9.999999999126e+005 9.999999998850e+005 9.999999998961e+005 9.999999999064e+005 9.999999998737e+005 9.999999999342e+005 9.999999998815e+005 9.999999998769e+005 9.999999999388e+005 9.999999998659e+005 9.999999999505e+005 9.999999999015e+005 9.999999999217e+005 9.999999998935e+005 9.999999999213e+005 9.999999999156e+005 9.999999998984e+005 9.999999998946e+005 9.999999999176e+005 9.999999998768e+005 9.999999999100e+005 9.999999998905e+005 9.999999999078e+005 9.999999999078e+005 9.999999998816e+005 9.999999999859e+005 1.000000630665e+006 9.999999999047e+005 9.999999999110e+005 9.999999999143e+005 9.999999999060e+005 9.999999999061e+005 9.999999999094e+005 9.999999999008e+005 9.999999999148e+005 9.999999999058e+005 9.999999999137e+005 9.999999999333e+005 9.999999998824e+005 9.999999999056e+005 9.999999999597e+005 9.999999998550e+005 9.999999998849e+005 9.999999999307e+005 9.999999999524e+005 9.999999999036e+005 9.999999998798e+005 9.999999998757e+005 9.999999999043e+005 9.999999999077e+005 9.999999999301e+005 9.999999999415e+005 9.999999999039e+005 9.999999998940e+005 9.999999899912e+005 9.999999999777e+005 9.999999999179e+005 9.999999999191e+005 9.999999999144e+005 9.999999999531e+005 9.999999998636e+005 9.999999998913e+005 9.999999999589e+005 9.999999999454e+005 9.999999999148e+005 9.999999999245e+005 9.999999999118e+005 9.999999999144e+005 9.999999998978e+005 9.99999999931