<?xml version="1.0"?>
<VTKFile type="UnstructuredGrid" version="0.1" byte_order="LittleEndian">
  <UnstructuredGrid>
    <Piece NumberOfPoints="601" NumberOfCells="1114">
      <Points>
        <DataArray type="Float64" NumberOfComponents="3" format="ascii">
          9.510000000000e-002 2.350697990000e-001 0.000000000000e+000
          1.063631230000e-001 2.714774400000e-001 0.000000000000e+000
          6.050000000000e-002 2.846704020000e-001 0.000000000000e+000
          5.720000000000e-002 2.264127830000e-001 0.000000000000e+000
          3.607917390000e-001 5.721080920000e-001 0.000000000000e+000
          3.768558020000e-001 5.525748860000e-001 0.000000000000e+000
          3.789778370000e-001 5.742477180000e-001 0.000000000000e+000
          3.136481190000e-001 5.509609410000e-001 0.000000000000e+000
          3.128188330000e-001 5.700416560000e-001 0.000000000000e+000
          2.881707800000e-001 5.687733920000e-001 0.000000000000e+000
          4.429907380000e-001 6.611719170000e-001 0.000000000000e+000
          4.320814310000e-001 6.642626630000e-001 0.000000000000e+000
          4.324781590000e-001 6.492754290000e-001 0.000000000000e+000
          2.969991220000e-001 5.382558640000e-001 0.000000000000e+000
          3.554110690000e-001 5.560310200000e-001 0.000000000000e+000
          4.214534510000e-001 6.601358340000e-001 0.000000000000e+000
          3.005429170000e-001 4.030809660000e-001 0.000000000000e+000
          3.340207110000e-001 4.132574770000e-001 0.000000000000e+000
          3.087980550000e-001 4.260963220000e-001 0.000000000000e+000
          3.053610030000e-001 3.660000000000e-002 0.000000000000e+000
          3.226354220000e-001 7.560000000000e-002 0.000000000000e+000
          2.746654270000e-001 8.220000000000e-002 0.000000000000e+000
          3.714377890000e-001 4.511813880000e-001 0.000000000000e+000
          3.808127360000e-001 4.661551930000e-001 0.000000000000e+000
          3.485926620000e-001 4.618266300000e-001 0.000000000000e+000
          3.675564050000e-001 4.815381760000e-001 0.000000000000e+000
          3.187177420000e-001 3.868419500000e-001 0.000000000000e+000
          4.410873470000e-001 5.496885300000e-001 0.000000000000e+000
          4.522404520000e-001 5.386010270000e-001 0.000000000000e+000
          4.593241840000e-001 5.538167910000e-001 0.000000000000e+000
          4.014960550000e-001 5.499755270000e-001 0.000000000000e+000
          3.980412370000e-001 5.681797670000e-001 0.000000000000e+000
          4.118653570000e-001 5.818986230000e-001 0.000000000000e+000
          4.290214690000e-001 5.850384460000e-001 0.000000000000e+000
          4.227055460000e-001 5.985109270000e-001 0.000000000000e+000
          4.262176060000e-001 6.109134930000e-001 0.000000000000e+000
          4.083256760000e-001 6.108101250000e-001 0.000000000000e+000
          4.074199840000e-001 1.678065540000e-001 0.000000000000e+000
          4.338525000000e-001 1.367993340000e-001 0.000000000000e+000
          4.419993050000e-001 1.735765240000e-001 0.000000000000e+000
          2.938198300000e-001 3.050000000000e-001 0.000000000000e+000
          3.040856940000e-001 3.370911280000e-001 0.000000000000e+000
          2.728783300000e-001 3.368892400000e-001 0.000000000000e+000
          4.245255210000e-001 6.751478260000e-001 0.000000000000e+000
          4.115146200000e-001 6.706797750000e-001 0.000000000000e+000
          2.172506940000e-001 6.543239900000e-001 0.000000000000e+000
          2.369118240000e-001 6.316770480000e-001 0.000000000000e+000
          2.468783150000e-001 6.519368170000e-001 0.000000000000e+000
          2.564526880000e-001 4.120000000000e-002 0.000000000000e+000
          3.448377420000e-001 6.129073000000e-001 0.000000000000e+000
          3.251379980000e-001 6.268927700000e-001 0.000000000000e+000
          3.273312140000e-001 5.994122080000e-001 0.000000000000e+000
          4.750000000000e-001 3.100000000000e-001 0.000000000000e+000
          4.622391060000e-001 3.191759170000e-001 0.000000000000e+000
          4.632789630000e-001 3.041741210000e-001 0.000000000000e+000
          1.686277520000e-001 5.768153050000e-001 0.000000000000e+000
          1.600733810000e-001 6.057946050000e-001 0.000000000000e+000
          1.336495140000e-001 5.702660460000e-001 0.000000000000e+000
          2.648985480000e-001 2.964243830000e-001 0.000000000000e+000
          4.750000000000e-001 6.810086020000e-001 0.000000000000e+000
          4.639688660000e-001 6.874614690000e-001 0.000000000000e+000
          4.675279960000e-001 6.755881310000e-001 0.000000000000e+000
          1.561569900000e-001 4.415648520000e-001 0.000000000000e+000
          1.171065000000e-001 4.689182860000e-001 0.000000000000e+000
          1.132137760000e-001 4.334105240000e-001 0.000000000000e+000
          4.561931150000e-001 6.630934020000e-001 0.000000000000e+000
          4.518916820000e-001 6.720976590000e-001 0.000000000000e+000
          4.522697350000e-001 6.939175990000e-001 0.000000000000e+000
          4.419733660000e-001 7.008709150000e-001 0.000000000000e+000
          4.414427990000e-001 6.880619320000e-001 0.000000000000e+000
          3.033683560000e-001 5.140865850000e-001 0.000000000000e+000
          2.832124480000e-001 4.946651860000e-001 0.000000000000e+000
          3.072265520000e-001 4.897188920000e-001 0.000000000000e+000
          4.221152260000e-001 2.910297120000e-001 0.000000000000e+000
          4.412966690000e-001 3.014644090000e-001 0.000000000000e+000
          4.299153840000e-001 3.056276890000e-001 0.000000000000e+000
          4.222588150000e-001 2.283775240000e-001 0.000000000000e+000
          4.357605810000e-001 2.536862780000e-001 0.000000000000e+000
          4.167418710000e-001 2.567880820000e-001 0.000000000000e+000
          1.638570440000e-001 1.794837980000e-001 0.000000000000e+000
          1.278151710000e-001 1.656272250000e-001 0.000000000000e+000
          1.617419920000e-001 1.377643790000e-001 0.000000000000e+000
          2.790434020000e-001 5.221415640000e-001 0.000000000000e+000
          1.305952380000e-001 4.029576320000e-001 0.000000000000e+000
          4.451347220000e-001 6.463338270000e-001 0.000000000000e+000
          4.413636270000e-001 6.322598450000e-001 0.000000000000e+000
          0.000000000000e+000 3.322666670000e-001 0.000000000000e+000
          4.030000000000e-002 3.241083040000e-001 0.000000000000e+000
          4.880000000000e-002 3.732204480000e-001 0.000000000000e+000
          4.096990520000e-001 5.970059090000e-001 0.000000000000e+000
          4.359622120000e-001 5.348093080000e-001 0.000000000000e+000
          8.634709500000e-002 1.861646220000e-001 0.000000000000e+000
          3.820000000000e-002 1.828048070000e-001 0.000000000000e+000
          1.912784940000e-001 1.603665230000e-001 0.000000000000e+000
          4.750000000000e-001 4.036036940000e-001 0.000000000000e+000
          4.642303300000e-001 4.105791900000e-001 0.000000000000e+000
          4.598121640000e-001 3.927740700000e-001 0.000000000000e+000
          2.401182360000e-001 6.738008570000e-001 0.000000000000e+000
          4.389592840000e-001 6.755823070000e-001 0.000000000000e+000
          4.750000000000e-001 3.296588890000e-001 0.000000000000e+000
          4.476987140000e-001 5.239335440000e-001 0.000000000000e+000
          0.000000000000e+000 3.797333330000e-001 0.000000000000e+000
          4.375000000000e-001 7.120000000000e-001 0.000000000000e+000
          4.475000000000e-001 7.120000000000e-001 0.000000000000e+000
          3.486106110000e-001 2.026073050000e-001 0.000000000000e+000
          3.165227960000e-001 2.081622480000e-001 0.000000000000e+000
          3.392437750000e-001 1.760088600000e-001 0.000000000000e+000
          3.790988860000e-001 3.453262370000e-001 0.000000000000e+000
          3.655035420000e-001 3.255507720000e-001 0.000000000000e+000
          3.843657540000e-001 3.249187520000e-001 0.000000000000e+000
          3.620975330000e-001 3.560346370000e-001 0.000000000000e+000
          3.512627780000e-001 3.391440580000e-001 0.000000000000e+000
          4.499617050000e-001 5.015835640000e-001 0.000000000000e+000
          4.342350580000e-001 5.014905690000e-001 0.000000000000e+000
          4.442913760000e-001 4.878780550000e-001 0.000000000000e+000
          4.428459580000e-001 5.878250430000e-001 0.000000000000e+000
          4.394391230000e-001 6.029122440000e-001 0.000000000000e+000
          4.750000000000e-001 3.000000000000e-001 0.000000000000e+000
          4.621409500000e-001 2.894091980000e-001 0.000000000000e+000
          2.375000000000e-001 0.000000000000e+000 0.000000000000e+000
          2.850000000000e-001 0.000000000000e+000 0.000000000000e+000
          3.328020250000e-001 1.169160730000e-001 0.000000000000e+000
          2.920212520000e-001 1.188378830000e-001 0.000000000000e+000
          2.291558360000e-001 5.885959210000e-001 0.000000000000e+000
          2.136428270000e-001 5.623651400000e-001 0.000000000000e+000
          2.442775890000e-001 5.609000500000e-001 0.000000000000e+000
          4.064206280000e-001 3.047299530000e-001 0.000000000000e+000
          4.182522270000e-001 3.108563120000e-001 0.000000000000e+000
          4.038465520000e-001 6.986003590000e-001 0.000000000000e+000
          4.028638560000e-001 6.886943560000e-001 0.000000000000e+000
          4.152648770000e-001 6.939116710000e-001 0.000000000000e+000
          3.503991620000e-001 3.921412100000e-001 0.000000000000e+000
          4.163989710000e-001 4.975390480000e-001 0.000000000000e+000
          4.089959850000e-001 4.792894720000e-001 0.000000000000e+000
          4.297013580000e-001 4.845435160000e-001 0.000000000000e+000
          1.264745580000e-001 6.127624150000e-001 0.000000000000e+000
          3.453115380000e-001 3.078956290000e-001 0.000000000000e+000
          3.197761870000e-001 5.295124480000e-001 0.000000000000e+000
          3.558901070000e-001 5.414409190000e-001 0.000000000000e+000
[...]
      <PointData Scalars="LIQUID_PRESSURE">
        <DataArray type="Float64" Name="LIQUID_PRESSURE" format="ascii">
          1.000013703442e+006 1.000013007447e+006 1.000012791651e+006 1.000013900867e+006 1.000006654222e+006 1.000007029645e+006 1.000006526581e+006 1.000007301922e+006 1.000006919474e+006 1.000007049997e+006 1.000003542940e+006 1.000003490180e+006 1.000004101323e+006 1.000007617588e+006 1.000007030840e+006 1.000003791526e+006 1.000010301748e+006 1.000010056582e+006 1.000009832737e+006 1.000031446853e+006 1.000014244172e+006 1.000013798812e+006 1.000009228705e+006 1.000008900431e+006 1.000009043376e+006 1.000008597722e+006 1.000010603535e+006 1.000006938781e+006 1.000007186619e+006 1.000006808552e+006 1.000007016169e+006 1.000006599951e+006 1.000006218212e+006 1.000006078047e+006 1.000005725785e+006 1.000005355521e+006 1.000005466034e+006 1.000014826855e+006 1.000015493268e+006 1.000014780882e+006 1.000012230008e+006 1.000011598467e+006 1.000011626588e+006 1.000003210496e+006 1.000003496932e+006 1.000005970200e+006 1.000006248319e+006 1.000006093676e+006 1.000030512894e+006 1.000005848561e+006 1.000005685418e+006 1.000006247959e+006 1.000012125583e+006 1.000011923270e+006 1.000012236949e+006 1.000007313696e+006 1.000006784834e+006 1.000007516315e+006 1.000012413272e+006 1.000003766716e+006 1.000006443819e+006 1.000002912540e+006 1.000009772978e+006 1.000009328026e+006 1.000009975053e+006 1.000003385025e+006 1.000002996165e+006 1.000009529535e+006 1.000008764768e+006 1.000003743241e+006 1.000008080174e+006 1.000008520348e+006 1.000008559689e+006 1.000012490379e+006 1.000012282910e+006 1.000012195029e+006 1.000013750390e+006 1.000013260749e+006 1.000013178958e+006 1.000014671851e+006 1.000014934745e+006 1.000015551214e+006 1.000007992485e+006 1.000010518142e+006 1.000004122277e+006 1.000004619046e+006 1.000011906649e+006 1.000012052191e+006 1.000011127432e+006 1.000005828595e+006 1.000007297440e+006 1.000014603718e+006 1.000014681947e+006 1.000014983023e+006 1.000010164912e+006 1.000010018496e+006 1.000010393201e+006 1.000002957959e+006 1.000002892624e+006 1.000011704768e+006 1.000007535330e+006 1.000011016749e+006 1.000000000000e+006 1.000000000000e+006 1.000014183687e+006 1.000014083715e+006 1.000014660852e+006 1.000011393689e+006 1.000011795441e+006 1.000011803530e+006 1.000011185775e+006 1.000011529827e+006 1.000008044834e+006 1.000008060595e+006 1.000008355623e+006 1.000005951142e+006 1.000005531769e+006 1.000012332265e+006 1.000012537333e+006 9.999395978581e+005 9.999380118132e+005 1.000015859098e+006 1.000016000042e+006 1.000006909817e+006 1.000007442988e+006 1.000007367478e+006 1.000012209558e+006 1.000012086748e+006 1.000030407462e+006 1.000009324783e+006 1.000016430510e+006 1.000010465523e+006 1.000008170304e+006 1.000008579787e+006 1.000008441587e+006 1.000006659104e+006 1.000012151879e+006 1.000007717057e+006 1.000007345963e+006 1.000007520316e+006 1.000008034369e+006 1.000007824616e+006 1.000008245547e+006 9.999509188466e+005 1.000023369088e+006 1.000039494249e+006 1.000009625113e+006 1.000009281260e+006 1.000009307648e+006 1.000003289577e+006 1.000005220550e+006 1.000005379341e+006 1.000007861887e+006 1.000010381716e+006 1.000010635671e+006 1.000010237200e+006 1.000006406450e+006 1.000006928213e+006 1.000007470349e+006 1.000008784022e+006 1.000015528196e+006 1.000016237346e+006 1.000015537927e+006 1.000004521311e+006 1.000004096831e+006 1.000004001233e+006 1.000003960484e+006 1.000004338208e+006 1.000005423952e+006 1.000005027361e+006 1.000009280985e+006 1.000009583856e+006 1.000009703095e+006 9.999983788241e+005 1.000008952665e+006 1.000009472859e+006 1.000010917231e+006 1.000008266826e+006 1.000008018820e+006 1.000012620722e+006 1.000011171062e+006 1.000010460899e+006 1.000008170534e+006 1.000008496065e+006 1.000008022092e+006 1.000006608468e+006 1.000010945850e+006 1.000012715063e+006 1.000004572552e+006 1.000012824263e+006 1.000012136425e+006 1.000009290679e+006 1.000009863213e+006 1.000008979234e+006 1.000015912326e+006 1.000015135560e+006 1.000010059987e+006 1.000009674983e+006 1.000008632094e+006 1.000008709097e+006 1.000044329584e+006 1.000006133733e+006 1.000014590909e+006 1.000012662175e+006 1.000012706688e+006 1.000012106625e+006 1.000011827400e+006 1.000011983319e+006 9.999106733262e+005 1.000003296039e+006 1.000013484825e+006 1.000009388298e+006 1.000011306865e+006 1.000011246905e+006 1.000011573112e+006 1.000005735449e+006 1.000005227830e+006 1.000005228328e+006 1.000008997876e+006 1.000012077105e+006 1.000010456350e+006 1.000011211149e+006 1.000006439192e+006 1.000032006982e+006 1.000009131978e+006 1.000013225078e+006 1.000012979701e+006 1.000012731842e+006 1.000025747311e+006 1.000027513393e+006 1.000009213186e+006 1.000008676354e+006 1.000008407349e+006 1.000013499544e+006 1.000012463550e+006 1.000005100505e+006 1.000012433229e+006 1.000003884728e+006 1.000002351937e+006 1.000019184979e+006 1.000003193256e+006 1.000010538274e+006 1.000010922307e+006 1.000005432489e+006 1.000008596708e+006 1.000015993066e+006 1.000007691316e+006 1.000014647919e+006 1.000005286431e+006 1.000005934707e+006 1.000003635919e+006 1.000003283849e+006 1.000014110048e+006 1.000009740116e+006 1.000015148195e+006 1.000011956874e+006 1.000011616630e+006 1.000011489912e+006 1.000010989450e+006 1.000014898701e+006 1.000015269210e+006 1.000009904401e+006 1.000011698930e+006 1.000014174577e+006 1.000013908921e+006 1.000013633334e+006 1.000014997971e+006 1.000014459026e+006 1.000013767788e+006 1.000116915401e+006 1.000113172706e+006 1.000013374127e+006 1.000007334170e+006 1.000014851524e+006 1.000015961933e+006 1.000004470136e+006 1.000015965119e+006 1.000005620948e+006 1.000010975791e+006 1.000007560187e+006 1.000007786133e+006 1.000006962079e+006 1.000011269137e+006 1.000011108871e+006 1.000008869967e+006 1.000009074714e+006 1.000009456757e+006 1.000013441152e+006 1.000014633836e+006 9.999366491488e+005 1.000029416539e+006 1.000010254249e+006 1.000013448157e+006 1.000014159888e+006 1.000013958821e+006 1.000006700824e+006 1.000006469009e+006 1.000010762507e+006 1.000005570721e+006 1.000011658605e+006 1.000011367671e+006 1.000007932471e+006 1.000010146133e+006 1.000006578741e+006 1.000006642094e+006 1.000005052150e+006 1.000015488873e+006 1.000012988374e+006 1.000013591555e+006 1.000013024738e+006 1.000005854976e+006 1.000004716924e+006 1.000008450824e+006 1.000007472246e+006 1.000005822531e+006 1.000005470357e+006 1.000007574263e+006 1.000007089615e+006 1.000007005842e+006 1.000007157555e+006 1.000010508643e+006 1.000015713448e+006 1.000004790706e+006 1.000004300101e+006 1.000012449902e+006 1.000070234047e+006 9.999906786451e+005 1.000091577556e+006 1.000006303149e+006 1.000015522346e+006 1.000010824229e+006 1.000006471717e+006 1.000002773963e+006 1.000009599633e+006 1.000006994604e+006 1.000007573042e+006 1.000008239925e+006 1.000008513203e+006 1.000009866503e+006 1.000006659575e+006 1.000010867015e+006 1.000010020049e+006 1.000010055833e+006 1.000007830235e+006 1.000011058692e+006 1.000009767583e+006 1.000008879376e+006 1.000007818192e+006 1.000013417532e+006 1.000004661877e+006 1.000008467900e+006 1.000004885883e+006 1.000004822080e+006 1.000004542014e+006 1.000015404324e+006 1.000012205166e+006 1.000012653257e+006 1.000005523240e+006 1.000011859750e+006 1.000003865756e+006 1.000003761466e+006 1.000005206259e+006 1.000014831122e+006 1.000015790457e+006 1.000024884702e+006 1.000008018667e+006 1.000008505081e+006 1.000007385095e+006 1.000025420006e+006 1.000007739100e+006 1.000009325939e+006 1.000009835409e+006 1.000012117554e+006 1.000008384940e+006 1.000007782771e+006 1.000006817172e+006 1.000005765961e+006 1.000006176339e+006 1.000007494656e+006 1.000009359145e+006 1.000004416613e+006 1.000010523388e+006 1.000011518433e+006 1.000015922894e+006 1.000008520152e+006 1.000007349437e+006 1.000007436035e+006 1.000027741829e+006 1.000010441214e+006 1.000000601950e+006 1.000010019487e+006 1.000026375733e+006 1.000013912042e+006 1.000011395516e+006 1.000005011969e+006 1.000007373292e+006 1.000007851418e+006 1.000005198548e+006 1.000004813118e+006 1.000005022749e+006 1.000014187553e+006 1.000015651384e+006 1.000008877436e+006 1.000007377625e+006 1.000014594108e+006 1.000005703089e+006 1.000006775770e+006 1.000013804421e+006 1.000006973820e+006 1.000010801153e+006 1.000029529350e+006 1.000013647752e+006 1.000013321287e+006 1.000006392682e+006 1.000007632615e+006 1.000006259204e+006 1.000011078301e+006 1.000010918720e+006 1.000006413083e+006 1.000003245371e+006 1.000010007846e+006 1.000007087688e+006 1.000004780273e+006 1.000008590762e+006 1.000008294994e+006 1.000012761530e+006 1.000013076380e+006 1.000004325039e+006 1.000011792457e+006 1.000010079467e+006 1.000111207197e+006 1.000105637503e+006 1.000011916736e+006 1.000010934940e+006 1.000004429797e+006 1.000107845091e+006 9.999903550900e+005 1.000012414735e+006 1.000011776034e+006 1.000011920670e+006 1.000016053676e+006 1.000015343058e+006 1.000014351524e+006 1.000009436310e+006 1.000009079892e+006 1.000006715635e+006 9.999951481916e+005 1.000004751235e+006 9.999472895847e+005 1.000014443467e+006 1.000006577081e+006 1.000005515495e+006 1.000004928393e+006 1.000005946000e+006 1.000006123099e+006 1.000032649765e+006 1.000010384174e+006 1.000007869841e+006 1.000014091564e+006 1.000005899548e+006 1.000009940171e+006 9.999259496712e+005 1.000011029970e+006 1.000007694946e+006 1.000009573770e+006 1.000003856613e+006 1.000003520865e+006 1.000012408753e+006 1.000015171573e+006 1.000018395593e+006 1.000013319120e+006 1.000005791537e+006 1.000013721375e+006 1.000014212933e+006 1.000013486973e+006 1.000012846848e+006 1.000003520154e+006 1.000012921579e+006 1.000012892025e+006 1.000008971077e+006 1.000008964413e+006 1.000015377673e+006 1.000008139329e+006 1.000013730306e+006 1.000008944938e+006 1.000013154384e+006 1.000006306831e+006 1.000015227808e+006 1.000003739201e+006 1.000005711972e+006 1.000013904047e+006 1.000117873305e+006 1.000008979599e+006 1.000088272361e+006 1.000011714281e+006 1.000114348201e+006 1.000004566498e+006 1.000100928474e+006 1.000011553709e+006 1.000004060770e+006 1.000006295109e+006 9.999410147144e+005 1.000024449820e+006 1.000030883864e+006 1.000015693706e+006 1.000009411397e+006 1.000010899390e+006 1.000005812437e+006 1.000004321819e+006 1.000118746417e+006 1.000107948015e+006 1.000025569305e+006 1.000008193518e+006 1.000007764586e+006 1.000006019843e+006 1.000015728082e+006 1.000011042788e+006 1.000114135680e+006 1.000112325289e+006 1.000056802054e+006 1.000013509279e+006 1.000042442679e+006 1.000116019933e+006 1.000049935783e+006 1.000004651745e+006 1.000014029368e+006 1.000006183048e+006 1.000046593589e+006 1.000002870957e+006 1.000008728110e+006 1.000016190443e+006 9.999240575758e+005 1.000010380493e+006 1.000094266358e+006 1.000016436017e+006 1.000119374073e+006 1.000009797880e+006 1.000009471419e+006 1.000004827056e+006 1.000004734152e+006 1.000115319336e+006 1.000014435018e+006 1.000006411258e+006 1.000005935364e+006 1.000008555381e+006 1.000118632388e+006 1.000037435772e+006 1.000002546587e+006 1.000010512821e+006 1.000010977903e+006 1.000007284552e+006 1.000003531184e+006 1.000002988460e+006 1.000003335850e+006 1.000011171067e+006 1.000011333092e+006 9.999492969788e+005 1.000023718157e+006 9.999224847096e+005 1.000011160967e+006 1.000014148621e+006 1.000055817267e+006 1.000023232398e+006 1.000009355212e+006 1.000013167610e+006 1.000009590139e+006 1.000010455449e+006 1.000108718009e+006 1.000058866628e+006 1.000014308195e+006 1.000014557399e+006 1.000003052423e+006 1.000008379894e+006 1.000006489569e+006 1.000013764381e+006 1.000005577185e+006 1.000016147206e+006 1.000010804916e+006 1.000010725382e+006 1.000006352324e+006 1.000004356107e+006 1.000008793886e+006 1.000009053506e+006 1.000013120617e+006 1.000007915433e+006 1.000012680817e+006 1.000015671942e+006 1.000006053776e+006 1.000010512979e+006 1.000013301311e+006 1.000012572170e+006 1.000012102330e+006 1.000016156899e+006 1.000012541297e+006 1.000009300594e+006 1.000012713048e+006 1.000012264821e+006 1.000012845882e+006 1.000006713885e+006 1.000006677884e+006 1.000012978688e+006 
        </DataArray>
        <DataArray type="Float64" Name="MEAN_PRESSURE" format="ascii">