<?xml version="1.0"?>
<VTKFile type="UnstructuredGrid" version="0.1" byte_order="LittleEndian">
  <UnstructuredGrid>
    <Piece NumberOfPoints="601" NumberOfCells="1114">
      <Points>
        <DataArray type="Float64" NumberOfComponents="3" format="ascii">
          9.510000000000e-002 2.350697990000e-001 0.000000000000e+000
          1.063631230000e-001 2.714774400000e-001 0.000000000000e+000
          6.050000000000e-002 2.846704020000e-001 0.000000000000e+000
          5.720000000000e-002 2.264127830000e-001 0.000000000000e+000
          3.607917390000e-001 5.721080920000e-001 0.000000000000e+000
          3.768558020000e-001 5.525748860000e-001 0.000000000000e+000
          3.789778370000e-001 5.742477180000e-001 0.000000000000e+000
          3.136481190000e-001 5.509609410000e-001 0.000000000000e+000
          3.128188330000e-001 5.700416560000e-001 0.000000000000e+000
          2.881707800000e-001 5.687733920000e-001 0.000000000000e+000
          4.429907380000e-001 6.611719170000e-001 0.000000000000e+000
          4.320814310000e-001 6.642626630000e-001 0.000000000000e+000
          4.324781590000e-001 6.492754290000e-001 0.000000000000e+000
          2.969991220000e-001 5.382558640000e-001 0.000000000000e+000
          3.554110690000e-001 5.560310200000e-001 0.000000000000e+000
          4.214534510000e-001 6.601358340000e-001 0.000000000000e+000
          3.005429170000e-001 4.030809660000e-001 0.000000000000e+000
          3.340207110000e-001 4.132574770000e-001 0.000000000000e+000
          3.087980550000e-001 4.260963220000e-001 0.000000000000e+000
          3.053610030000e-001 3.660000000000e-002 0.000000000000e+000
          3.226354220000e-001 7.560000000000e-002 0.000000000000e+000
          2.746654270000e-001 8.220000000000e-002 0.000000000000e+000
          3.714377890000e-001 4.511813880000e-001 0.000000000000e+000
          3.808127360000e-001 4.661551930000e-001 0.000000000000e+000
          3.485926620000e-001 4.618266300000e-001 0.000000000000e+000
          3.675564050000e-001 4.815381760000e-001 0.000000000000e+000
          3.187177420000e-001 3.868419500000e-001 0.000000000000e+000
          4.410873470000e-001 5.496885300000e-001 0.000000000000e+000
          4.522404520000e-001 5.386010270000e-001 0.000000000000e+000
          4.593241840000e-001 5.538167910000e-001 0.000000000000e+000
          4.014960550000e-001 5.499755270000e-001 0.000000000000e+000
          3.980412370000e-001 5.681797670000e-001 0.000000000000e+000
          4.118653570000e-001 5.818986230000e-001 0.000000000000e+000
          4.290214690000e-001 5.850384460000e-001 0.000000000000e+000
          4.227055460000e-001 5.985109270000e-001 0.000000000000e+000
          4.262176060000e-001 6.109134930000e-001 0.000000000000e+000
          4.083256760000e-001 6.108101250000e-001 0.000000000000e+000
          4.074199840000e-001 1.678065540000e-001 0.000000000000e+000
          4.338525000000e-001 1.367993340000e-001 0.000000000000e+000
          4.419993050000e-001 1.735765240000e-001 0.000000000000e+000
          2.938198300000e-001 3.050000000000e-001 0.000000000000e+000
          3.040856940000e-001 3.370911280000e-001 0.000000000000e+000
          2.728783300000e-001 3.368892400000e-001 0.000000000000e+000
          4.245255210000e-001 6.751478260000e-001 0.000000000000e+000
          4.115146200000e-001 6.706797750000e-001 0.000000000000e+000
          2.172506940000e-001 6.543239900000e-001 0.000000000000e+000
          2.369118240000e-001 6.316770480000e-001 0.000000000000e+000
          2.468783150000e-001 6.519368170000e-001 0.000000000000e+000
          2.564526880000e-001 4.120000000000e-002 0.000000000000e+000
          3.448377420000e-001 6.129073000000e-001 0.000000000000e+000
          3.251379980000e-001 6.268927700000e-001 0.000000000000e+000
          3.273312140000e-001 5.994122080000e-001 0.000000000000e+000
          4.750000000000e-001 3.100000000000e-001 0.000000000000e+000
          4.622391060000e-001 3.191759170000e-001 0.000000000000e+000
          4.632789630000e-001 3.041741210000e-001 0.000000000000e+000
          1.686277520000e-001 5.768153050000e-001 0.000000000000e+000
          1.600733810000e-001 6.057946050000e-001 0.000000000000e+000
          1.336495140000e-001 5.702660460000e-001 0.000000000000e+000
          2.648985480000e-001 2.964243830000e-001 0.000000000000e+000
          4.750000000000e-001 6.810086020000e-001 0.000000000000e+000
          4.639688660000e-001 6.874614690000e-001 0.000000000000e+000
          4.675279960000e-001 6.755881310000e-001 0.000000000000e+000
          1.561569900000e-001 4.415648520000e-001 0.000000000000e+000
          1.171065000000e-001 4.689182860000e-001 0.000000000000e+000
          1.132137760000e-001 4.334105240000e-001 0.000000000000e+000
          4.561931150000e-001 6.630934020000e-001 0.000000000000e+000
          4.518916820000e-001 6.720976590000e-001 0.000000000000e+000
          4.522697350000e-001 6.939175990000e-001 0.000000000000e+000
          4.419733660000e-001 7.008709150000e-001 0.000000000000e+000
          4.414427990000e-001 6.880619320000e-001 0.000000000000e+000
          3.033683560000e-001 5.140865850000e-001 0.000000000000e+000
          2.832124480000e-001 4.946651860000e-001 0.000000000000e+000
          3.072265520000e-001 4.897188920000e-001 0.000000000000e+000
          4.221152260000e-001 2.910297120000e-001 0.000000000000e+000
          4.412966690000e-001 3.014644090000e-001 0.000000000000e+000
          4.299153840000e-001 3.056276890000e-001 0.000000000000e+000
          4.222588150000e-001 2.283775240000e-001 0.000000000000e+000
          4.357605810000e-001 2.536862780000e-001 0.000000000000e+000
          4.167418710000e-001 2.567880820000e-001 0.000000000000e+000
          1.638570440000e-001 1.794837980000e-001 0.000000000000e+000
          1.278151710000e-001 1.656272250000e-001 0.000000000000e+000
          1.617419920000e-001 1.377643790000e-001 0.000000000000e+000
          2.790434020000e-001 5.221415640000e-001 0.000000000000e+000
          1.305952380000e-001 4.029576320000e-001 0.000000000000e+000
          4.451347220000e-001 6.463338270000e-001 0.000000000000e+000
          4.413636270000e-001 6.322598450000e-001 0.000000000000e+000
          0.000000000000e+000 3.322666670000e-001 0.000000000000e+000
          4.030000000000e-002 3.241083040000e-001 0.000000000000e+000
          4.880000000000e-002 3.732204480000e-001 0.000000000000e+000
          4.096990520000e-001 5.970059090000e-001 0.000000000000e+000
          4.359622120000e-001 5.348093080000e-001 0.000000000000e+000
          8.634709500000e-002 1.861646220000e-001 0.000000000000e+000
          3.820000000000e-002 1.828048070000e-001 0.000000000000e+000
          1.912784940000e-001 1.603665230000e-001 0.000000000000e+000
          4.750000000000e-001 4.036036940000e-001 0.000000000000e+000
          4.642303300000e-001 4.105791900000e-001 0.000000000000e+000
          4.598121640000e-001 3.927740700000e-001 0.000000000000e+000
          2.401182360000e-001 6.738008570000e-001 0.000000000000e+000
          4.389592840000e-001 6.755823070000e-001 0.000000000000e+000
          4.750000000000e-001 3.296588890000e-001 0.000000000000e+000
          4.476987140000e-001 5.239335440000e-001 0.000000000000e+000
          0.000000000000e+000 3.797333330000e-001 0.000000000000e+000
          4.375000000000e-001 7.120000000000e-001 0.000000000000e+000
          4.475000000000e-001 7.120000000000e-001 0.000000000000e+000
          3.486106110000e-001 2.026073050000e-001 0.000000000000e+000
          3.165227960000e-001 2.081622480000e-001 0.000000000000e+000
          3.392437750000e-001 1.760088600000e-001 0.000000000000e+000
          3.790988860000e-001 3.453262370000e-001 0.000000000000e+000
          3.655035420000e-001 3.255507720000e-001 0.000000000000e+000
          3.843657540000e-001 3.249187520000e-001 0.000000000000e+000
          3.620975330000e-001 3.560346370000e-001 0.000000000000e+000
          3.512627780000e-001 3.391440580000e-001 0.000000000000e+000
          4.499617050000e-001 5.015835640000e-001 0.000000000000e+000
          4.342350580000e-001 5.014905690000e-001 0.000000000000e+000
          4.442913760000e-001 4.878780550000e-001 0.000000000000e+000
          4.428459580000e-001 5.878250430000e-001 0.000000000000e+000
          4.394391230000e-001 6.029122440000e-001 0.000000000000e+000
          4.750000000000e-001 3.000000000000e-001 0.000000000000e+000
          4.621409500000e-001 2.894091980000e-001 0.000000000000e+000
          2.375000000000e-001 0.000000000000e+000 0.000000000000e+000
          2.850000000000e-001 0.000000000000e+000 0.000000000000e+000
          3.328020250000e-001 1.169160730000e-001 0.000000000000e+000
          2.920212520000e-001 1.188378830000e-001 0.000000000000e+000
          2.291558360000e-001 5.885959210000e-001 0.000000000000e+000
          2.136428270000e-001 5.623651400000e-001 0.000000000000e+000
          2.442775890000e-001 5.609000500000e-001 0.000000000000e+000
          4.064206280000e-001 3.047299530000e-001 0.000000000000e+000
          4.182522270000e-001 3.108563120000e-001 0.000000000000e+000
          4.038465520000e-001 6.986003590000e-001 0.000000000000e+000
          4.028638560000e-001 6.886943560000e-001 0.000000000000e+000
          4.152648770000e-001 6.939116710000e-001 0.000000000000e+000
          3.503991620000e-001 3.921412100000e-001 0.000000000000e+000
          4.163989710000e-001 4.975390480000e-001 0.000000000000e+000
          4.089959850000e-001 4.792894720000e-001 0.000000000000e+000
          4.297013580000e-001 4.845435160000e-001 0.000000000000e+000
          1.264745580000e-001 6.127624150000e-001 0.000000000000e+000
          3.453115380000e-001 3.078956290000e-001 0.000000000000e+000
          3.197761870000e-001 5.295124480000e-001 0.000000000000e+000
          3.558901070000e-001 5.414409190000e-001 0.000000000000e+000
[...]
      <PointData Scalars="LIQUID_PRESSURE">
        <DataArray type="Float64" Name="LIQUID_PRESSURE" format="ascii">
          1.000006078837e+006 1.000005743202e+006 1.000005638039e+006 1.000006167158e+006 1.000002863229e+006 1.000003039221e+006 1.000002818543e+006 1.000003131689e+006 1.000002958985e+006 1.000003010299e+006 1.000001562844e+006 1.000001542020e+006 1.000001785266e+006 1.000003268668e+006 1.000003028218e+006 1.000001647531e+006 1.000004467937e+006 1.000004358310e+006 1.000004259454e+006 1.000017901615e+006 1.000004684760e+006 1.000004838197e+006 1.000003996748e+006 1.000003854700e+006 1.000003913305e+006 1.000003720844e+006 1.000004600428e+006 1.000003031379e+006 1.000003134103e+006 1.000002975211e+006 1.000003048371e+006 1.000002865850e+006 1.000002712306e+006 1.000002662702e+006 1.000002498287e+006 1.000002335706e+006 1.000002370448e+006 1.000006425157e+006 1.000006586544e+006 1.000006370348e+006 1.000005327093e+006 1.000005043419e+006 1.000005063290e+006 1.000001371598e+006 1.000001579976e+006 1.000003369155e+006 1.000002446885e+006 1.000002520573e+006 1.000016307273e+006 1.000002486190e+006 1.000002405896e+006 1.000002657169e+006 1.000005243304e+006 1.000005153421e+006 1.000005285968e+006 1.000003086000e+006 1.000002878235e+006 1.000003179591e+006 1.000005419024e+006 1.000000921967e+006 1.000000737991e+006 1.000001212956e+006 1.000004226639e+006 1.000004014612e+006 1.000004318059e+006 1.000001505568e+006 1.000001335807e+006 1.000002099298e+006 1.000001977239e+006 1.000000607108e+006 1.000003478228e+006 1.000003671337e+006 1.000003693242e+006 1.000005396388e+006 1.000005305741e+006 1.000005270777e+006 1.000005921137e+006 1.000005708940e+006 1.000005686149e+006 1.000006542841e+006 1.000006699364e+006 1.000006837305e+006 1.000003433085e+006 1.000004571463e+006 1.000001814195e+006 1.000002026227e+006 1.000005219726e+006 1.000005288646e+006 1.000004856454e+006 1.000002533778e+006 1.000003179270e+006 1.000006540978e+006 1.000006589127e+006 1.000006644902e+006 1.000004403072e+006 1.000004340253e+006 1.000004501076e+006 1.000002392055e+006 1.000001293862e+006 1.000005060457e+006 1.000003280108e+006 1.000004804492e+006 1.000000000000e+006 1.000000000000e+006 1.000006158975e+006 1.000006132679e+006 1.000006390035e+006 1.000004937762e+006 1.000005114616e+006 1.000005113664e+006 1.000004850417e+006 1.000005002351e+006 1.000003495582e+006 1.000003500783e+006 1.000003627365e+006 1.000002607698e+006 1.000002420343e+006 1.000005329320e+006 1.000005408645e+006 9.999656513466e+005 9.999644737988e+005 1.000007165633e+006 1.000007421557e+006 1.000002942325e+006 1.000003162680e+006 1.000003141882e+006 1.000005282037e+006 1.000005227260e+006 1.000007863477e+006 1.000000798846e+006 1.000002714550e+006 1.000004537184e+006 1.000003544985e+006 1.000003719600e+006 1.000003662778e+006 1.000002755833e+006 1.000005275343e+006 1.000003320258e+006 1.000003168242e+006 1.000003249840e+006 1.000003491995e+006 1.000003402820e+006 1.000003581393e+006 9.999724029927e+005 1.000010395594e+006 1.000024432891e+006 1.000004171231e+006 1.000004023809e+006 1.000004034639e+006 1.000001797083e+006 1.000002548664e+006 1.000002181891e+006 1.000003345388e+006 1.000004498310e+006 1.000004606907e+006 1.000004434865e+006 1.000002586326e+006 1.000002939135e+006 1.000003195716e+006 1.000003808722e+006 1.000006961169e+006 1.000007732093e+006 1.000006919240e+006 1.000001000272e+006 1.000001752070e+006 1.000001778343e+006 1.000001764068e+006 1.000001921974e+006 1.000002378079e+006 1.000002205147e+006 1.000004021087e+006 1.000004151527e+006 1.000004203912e+006 9.999921662898e+005 1.000003870080e+006 1.000004101008e+006 1.000004742630e+006 1.000003524142e+006 1.000003387899e+006 1.000005446425e+006 1.000004874521e+006 1.000004544864e+006 1.000003535826e+006 1.000003680322e+006 1.000003475645e+006 1.000002895280e+006 1.000002312889e+006 1.000005480093e+006 1.000001993452e+006 1.000005644100e+006 1.000001610148e+006 1.000003996717e+006 1.000004264730e+006 1.000003852021e+006 1.000006787147e+006 1.000006516773e+006 1.000004358111e+006 1.000004192779e+006 1.000003745793e+006 1.000003777876e+006 1.000021628629e+006 1.000002591419e+006 1.000006381542e+006 1.000005522769e+006 1.000005528845e+006 1.000005231089e+006 1.000005113448e+006 1.000005180141e+006 9.999449110778e+005 1.000001080497e+006 1.000005820248e+006 1.000004065277e+006 1.000004891773e+006 1.000004866671e+006 1.000005005328e+006 1.000002461073e+006 1.000002244466e+006 1.000002233603e+006 1.000003902040e+006 1.000005251404e+006 1.000004542872e+006 1.000004894985e+006 1.000002751760e+006 1.000018054438e+006 1.000003930038e+006 1.000005746504e+006 1.000005625966e+006 1.000005527607e+006 1.000009432670e+006 1.000014445593e+006 1.000003959010e+006 1.000003709336e+006 1.000003567811e+006 1.000005856715e+006 1.000005391246e+006 1.000002229908e+006 1.000005366938e+006 1.000000970725e+006 1.000000851468e+006 1.000000396797e+006 1.000000417467e+006 1.000004563196e+006 1.000004748838e+006 1.000000804483e+006 1.000003716550e+006 1.000007335253e+006 1.000003346811e+006 1.000006283454e+006 1.000002113545e+006 1.000002568021e+006 1.000001620491e+006 1.000000977802e+006 1.000006264254e+006 1.000004219312e+006 1.000006521002e+006 1.000005219892e+006 1.000005074790e+006 1.000005011676e+006 1.000004785200e+006 1.000006471270e+006 1.000006573559e+006 1.000004291257e+006 1.000005081683e+006 1.000006088984e+006 1.000005951756e+006 1.000005854768e+006 1.000006516469e+006 1.000006259175e+006 1.000005066509e+006 1.000077201501e+006 1.000071587788e+006 1.000005906302e+006 1.000003109576e+006 1.000004497019e+006 1.000007330903e+006 1.000002395248e+006 1.000007460537e+006 1.000002251534e+006 1.000004750611e+006 1.000003269249e+006 1.000003318885e+006 1.000002565661e+006 1.000004890710e+006 1.000004824121e+006 1.000003822438e+006 1.000003912000e+006 1.000004088619e+006 1.000005819633e+006 1.000005168012e+006 9.999631476734e+005 1.000017060410e+006 1.000004441818e+006 1.000005944867e+006 1.000006293507e+006 1.000006175989e+006 1.000002926204e+006 1.000002844254e+006 1.000004662880e+006 1.000002400603e+006 1.000005042646e+006 1.000004918851e+006 1.000003400178e+006 1.000004397575e+006 1.000002799985e+006 1.000002838185e+006 1.000002184031e+006 1.000006652424e+006 1.000005678724e+006 1.000005937096e+006 1.000005677940e+006 1.000002282449e+006 1.000002662761e+006 1.000003635561e+006 1.000003088457e+006 1.000002551718e+006 1.000002399647e+006 1.000003291965e+006 1.000003089882e+006 1.000003057789e+006 1.000003121822e+006 1.000004550932e+006 1.000007120275e+006 1.000002209430e+006 1.000002138636e+006 1.000005398540e+006 1.000036373688e+006 9.999916485438e+005 1.000050114683e+006 1.000002730255e+006 1.000006950917e+006 1.000004691857e+006 1.000002648921e+006 1.000000932764e+006 1.000004151030e+006 1.000002979013e+006 1.000003216320e+006 1.000003572217e+006 1.000003675992e+006 1.000004274927e+006 1.000002911325e+006 1.000004714758e+006 1.000004341364e+006 1.000004357271e+006 1.000003404116e+006 1.000004819892e+006 1.000004220112e+006 1.000003851768e+006 1.000003343498e+006 1.000005843186e+006 1.000002052881e+006 1.000003590198e+006 1.000002056929e+006 1.000002069900e+006 1.000001909021e+006 1.000006836604e+006 1.000005285923e+006 1.000005477576e+006 1.000002351421e+006 1.000005129396e+006 1.000001718527e+006 1.000001662385e+006 1.000002197748e+006 1.000006551603e+006 1.000007089076e+006 1.000003051095e+006 1.000003427392e+006 1.000003642568e+006 1.000003199486e+006 1.000011453166e+006 1.000003349202e+006 1.000004032001e+006 1.000004260302e+006 1.000005253402e+006 1.000003599684e+006 1.000004528979e+006 1.000002685209e+006 1.000002527408e+006 1.000002663794e+006 1.000003221117e+006 1.000004048756e+006 1.000001953799e+006 1.000004574282e+006 1.000004984447e+006 1.000007091705e+006 1.000003655902e+006 1.000003202609e+006 1.000003238967e+006 1.000017936369e+006 1.000004525217e+006 9.999992944528e+005 1.000004342746e+006 1.000013751435e+006 1.000004119587e+006 1.000004964407e+006 1.000002180949e+006 1.000003202862e+006 1.000003406353e+006 1.000002283551e+006 1.000002120000e+006 1.000002207561e+006 1.000004618418e+006 1.000007322443e+006 1.000003846560e+006 1.000003174159e+006 1.000006522380e+006 1.000002310235e+006 1.000002965363e+006 1.000006000040e+006 1.000002993608e+006 1.000004676241e+006 1.000018612952e+006 1.000005847275e+006 1.000005723462e+006 1.000002654850e+006 1.000003308843e+006 1.000002688001e+006 1.000004795258e+006 1.000004726080e+006 1.000002808391e+006 1.000001476593e+006 1.000004337243e+006 1.000002387654e+006 1.000004433605e+006 9.999952001570e+005 1.000003586545e+006 1.000005515135e+006 1.000005654638e+006 1.000001911215e+006 1.000005167702e+006 1.000004367999e+006 1.000068740066e+006 1.000062500910e+006 1.000005158620e+006 1.000004757486e+006 1.000001889943e+006 1.000064177513e+006 9.999895243128e+005 1.000005454513e+006 1.000005153779e+006 1.000005226428e+006 1.000007379879e+006 1.000005743859e+006 1.000006146306e+006 1.000004090432e+006 1.000003937699e+006 1.000003447313e+006 9.999918519537e+005 1.000003805938e+006 9.999697288184e+005 1.000006228652e+006 1.000002817816e+006 1.000002333843e+006 1.000002020961e+006 1.000002605200e+006 1.000002681909e+006 1.000019411525e+006 1.000004506185e+006 1.000003417635e+006 1.000006085311e+006 1.000002519981e+006 1.000004305480e+006 9.999552984322e+005 1.000004810803e+006 1.000003345649e+006 1.000004148373e+006 1.000001724473e+006 1.000001425574e+006 1.000005457607e+006 1.000006509314e+006 9.999996470839e+005 1.000001179869e+006 1.000000296098e+006 1.000006042109e+006 1.000006253351e+006 1.000005911462e+006 1.000005543869e+006 9.999946580919e+005 1.000005568896e+006 1.000005552722e+006 1.000003871245e+006 1.000003871815e+006 1.000006602480e+006 1.000003509575e+006 1.000005936024e+006 1.000003848358e+006 1.000005655899e+006 1.000002760656e+006 1.000006601020e+006 1.000001709529e+006 1.000002502757e+006 1.000006025050e+006 1.000079164174e+006 1.000003892039e+006 1.000069565431e+006 1.000005069883e+006 1.000072349416e+006 1.000001968747e+006 1.000058129603e+006 1.000005003609e+006 1.000001801510e+006 1.000002761733e+006 9.999657299200e+005 1.000011786658e+006 1.000019360745e+006 1.000006761080e+006 1.000004062556e+006 1.000004726798e+006 1.000002448216e+006 1.000001871199e+006 1.000078540373e+006 1.000066845080e+006 1.000003286409e+006 1.000003538450e+006 1.000003348971e+006 1.000002517182e+006 9.999977059503e+005 1.000004785331e+006 1.000080052100e+006 1.000082688438e+006 1.000029821995e+006 1.000005983646e+006 1.000017360326e+006 1.000078058254e+006 1.000020866231e+006 1.000002051686e+006 1.000006144783e+006 1.000002639819e+006 1.000017962057e+006 1.000002348694e+006 1.000003787250e+006 1.000007781770e+006 9.999535173695e+005 1.000004507344e+006 1.000073197796e+006 1.000005846655e+006 1.000082201566e+006 1.000004245555e+006 9.999954727608e+005 1.000002107956e+006 1.000002054096e+006 1.000082506604e+006 1.000006386445e+006 1.000002714681e+006 1.000002524527e+006 1.000003713469e+006 1.000081113896e+006 1.000011181342e+006 1.000000804912e+006 1.000004565362e+006 1.000004754258e+006 1.000003946777e+006 1.000001578484e+006 1.000001401770e+006 9.999962648041e+005 1.000004835929e+006 1.000004906827e+006 9.999713496381e+005 1.000011845871e+006 9.999524297121e+005 1.000004834699e+006 1.000006053139e+006 1.000026765599e+006 1.000006558306e+006 9.999998418351e+005 1.000001204553e+006 1.000004155885e+006 1.000004540536e+006 1.000065432216e+006 1.000036112967e+006 1.000006259918e+006 1.000006422448e+006 1.000001348457e+006 1.000003638768e+006 1.000002839359e+006 1.000006075414e+006 1.000002445983e+006 1.000007805649e+006 1.000004678648e+006 1.000004643410e+006 1.000002683141e+006 1.000001848652e+006 1.000003768578e+006 1.000003925033e+006 1.000005756891e+006 1.000003420607e+006 1.000005468641e+006 1.000006994734e+006 1.000002652859e+006 1.000004553365e+006 1.000005858504e+006 1.000005501965e+006 1.000005294055e+006 1.000006503193e+006 1.000005518733e+006 1.000004030863e+006 1.000005578447e+006 1.000005377322e+006 1.000005652165e+006 1.000002540996e+006 1.000002834068e+006 1.000005724498e+006 
        </DataArray>
        <DataArray type="Float64" Name="MEAN_PRESSURE" format="ascii">