<?xml version="1.0"?>
<VTKFile type="UnstructuredGrid" version="0.1" byte_order="LittleEndian">
  <UnstructuredGrid>
    <Piece NumberOfPoints="601" NumberOfCells="1114">
      <Points>
        <DataArray type="Float64" NumberOfComponents="3" format="ascii">
          9.510000000000e-002 2.350697990000e-001 0.000000000000e+000
          1.063631230000e-001 2.714774400000e-001 0.000000000000e+000
          6.050000000000e-002 2.846704020000e-001 0.000000000000e+000
          5.720000000000e-002 2.264127830000e-001 0.000000000000e+000
          3.607917390000e-001 5.721080920000e-001 0.000000000000e+000
          3.768558020000e-001 5.525748860000e-001 0.000000000000e+000
          3.789778370000e-001 5.742477180000e-001 0.000000000000e+000
          3.136481190000e-001 5.509609410000e-001 0.000000000000e+000
          3.128188330000e-001 5.700416560000e-001 0.000000000000e+000
          2.881707800000e-001 5.687733920000e-001 0.000000000000e+000
          4.429907380000e-001 6.611719170000e-001 0.000000000000e+000
          4.320814310000e-001 6.642626630000e-001 0.000000000000e+000
          4.324781590000e-001 6.492754290000e-001 0.000000000000e+000
          2.969991220000e-001 5.382558640000e-001 0.000000000000e+000
          3.554110690000e-001 5.560310200000e-001 0.000000000000e+000
          4.214534510000e-001 6.601358340000e-001 0.000000000000e+000
          3.005429170000e-001 4.030809660000e-001 0.000000000000e+000
          3.340207110000e-001 4.132574770000e-001 0.000000000000e+000
          3.087980550000e-001 4.260963220000e-001 0.000000000000e+000
          3.053610030000e-001 3.660000000000e-002 0.000000000000e+000
          3.226354220000e-001 7.560000000000e-002 0.000000000000e+000
          2.746654270000e-001 8.220000000000e-002 0.000000000000e+000
          3.714377890000e-001 4.511813880000e-001 0.000000000000e+000
          3.808127360000e-001 4.661551930000e-001 0.000000000000e+000
          3.485926620000e-001 4.618266300000e-001 0.000000000000e+000
          3.675564050000e-001 4.815381760000e-001 0.000000000000e+000
          3.187177420000e-001 3.868419500000e-001 0.000000000000e+000
          4.410873470000e-001 5.496885300000e-001 0.000000000000e+000
          4.522404520000e-001 5.386010270000e-001 0.000000000000e+000
          4.593241840000e-001 5.538167910000e-001 0.000000000000e+000
          4.014960550000e-001 5.499755270000e-001 0.000000000000e+000
          3.980412370000e-001 5.681797670000e-001 0.000000000000e+000
          4.118653570000e-001 5.818986230000e-001 0.000000000000e+000
          4.290214690000e-001 5.850384460000e-001 0.000000000000e+000
          4.227055460000e-001 5.985109270000e-001 0.000000000000e+000
          4.262176060000e-001 6.109134930000e-001 0.000000000000e+000
          4.083256760000e-001 6.108101250000e-001 0.000000000000e+000
          4.074199840000e-001 1.678065540000e-001 0.000000000000e+000
          4.338525000000e-001 1.367993340000e-001 0.000000000000e+000
          4.419993050000e-001 1.735765240000e-001 0.000000000000e+000
          2.938198300000e-001 3.050000000000e-001 0.000000000000e+000
          3.040856940000e-001 3.370911280000e-001 0.000000000000e+000
          2.728783300000e-001 3.368892400000e-001 0.000000000000e+000
          4.245255210000e-001 6.751478260000e-001 0.000000000000e+000
          4.115146200000e-001 6.706797750000e-001 0.000000000000e+000
          2.172506940000e-001 6.543239900000e-001 0.000000000000e+000
          2.369118240000e-001 6.316770480000e-001 0.000000000000e+000
          2.468783150000e-001 6.519368170000e-001 0.000000000000e+000
          2.564526880000e-001 4.120000000000e-002 0.000000000000e+000
          3.448377420000e-001 6.129073000000e-001 0.000000000000e+000
          3.251379980000e-001 6.268927700000e-001 0.000000000000e+000
          3.273312140000e-001 5.994122080000e-001 0.000000000000e+000
          4.750000000000e-001 3.100000000000e-001 0.000000000000e+000
          4.622391060000e-001 3.191759170000e-001 0.000000000000e+000
          4.632789630000e-001 3.041741210000e-001 0.000000000000e+000
          1.686277520000e-001 5.768153050000e-001 0.000000000000e+000
          1.600733810000e-001 6.057946050000e-001 0.000000000000e+000
          1.336495140000e-001 5.702660460000e-001 0.000000000000e+000
          2.648985480000e-001 2.964243830000e-001 0.000000000000e+000
          4.750000000000e-001 6.810086020000e-001 0.000000000000e+000
          4.639688660000e-001 6.874614690000e-001 0.000000000000e+000
          4.675279960000e-001 6.755881310000e-001 0.000000000000e+000
          1.561569900000e-001 4.415648520000e-001 0.000000000000e+000
          1.171065000000e-001 4.689182860000e-001 0.000000000000e+000
          1.132137760000e-001 4.334105240000e-001 0.000000000000e+000
          4.561931150000e-001 6.630934020000e-001 0.000000000000e+000
          4.518916820000e-001 6.720976590000e-001 0.000000000000e+000
          4.522697350000e-001 6.939175990000e-001 0.000000000000e+000
          4.419733660000e-001 7.008709150000e-001 0.000000000000e+000
          4.414427990000e-001 6.880619320000e-001 0.000000000000e+000
          3.033683560000e-001 5.140865850000e-001 0.000000000000e+000
          2.832124480000e-001 4.946651860000e-001 0.000000000000e+000
          3.072265520000e-001 4.897188920000e-001 0.000000000000e+000
          4.221152260000e-001 2.910297120000e-001 0.000000000000e+000
          4.412966690000e-001 3.014644090000e-001 0.000000000000e+000
          4.299153840000e-001 3.056276890000e-001 0.000000000000e+000
          4.222588150000e-001 2.283775240000e-001 0.000000000000e+000
          4.357605810000e-001 2.536862780000e-001 0.000000000000e+000
          4.167418710000e-001 2.567880820000e-001 0.000000000000e+000
          1.638570440000e-001 1.794837980000e-001 0.000000000000e+000
          1.278151710000e-001 1.656272250000e-001 0.000000000000e+000
          1.617419920000e-001 1.377643790000e-001 0.000000000000e+000
          2.790434020000e-001 5.221415640000e-001 0.000000000000e+000
          1.305952380000e-001 4.029576320000e-001 0.000000000000e+000
          4.451347220000e-001 6.463338270000e-001 0.000000000000e+000
          4.413636270000e-001 6.322598450000e-001 0.000000000000e+000
          0.000000000000e+000 3.322666670000e-001 0.000000000000e+000
          4.030000000000e-002 3.241083040000e-001 0.000000000000e+000
          4.880000000000e-002 3.732204480000e-001 0.000000000000e+000
          4.096990520000e-001 5.970059090000e-001 0.000000000000e+000
          4.359622120000e-001 5.348093080000e-001 0.000000000000e+000
          8.634709500000e-002 1.861646220000e-001 0.000000000000e+000
          3.820000000000e-002 1.828048070000e-001 0.000000000000e+000
          1.912784940000e-001 1.603665230000e-001 0.000000000000e+000
          4.750000000000e-001 4.036036940000e-001 0.000000000000e+000
          4.642303300000e-001 4.105791900000e-001 0.000000000000e+000
          4.598121640000e-001 3.927740700000e-001 0.000000000000e+000
          2.401182360000e-001 6.738008570000e-001 0.000000000000e+000
          4.389592840000e-001 6.755823070000e-001 0.000000000000e+000
          4.750000000000e-001 3.296588890000e-001 0.000000000000e+000
          4.476987140000e-001 5.239335440000e-001 0.000000000000e+000
          0.000000000000e+000 3.797333330000e-001 0.000000000000e+000
          4.375000000000e-001 7.120000000000e-001 0.000000000000e+000
          4.475000000000e-001 7.120000000000e-001 0.000000000000e+000
          3.486106110000e-001 2.026073050000e-001 0.000000000000e+000
          3.165227960000e-001 2.081622480000e-001 0.000000000000e+000
          3.392437750000e-001 1.760088600000e-001 0.000000000000e+000
          3.790988860000e-001 3.453262370000e-001 0.000000000000e+000
          3.655035420000e-001 3.255507720000e-001 0.000000000000e+000
          3.843657540000e-001 3.249187520000e-001 0.000000000000e+000
          3.620975330000e-001 3.560346370000e-001 0.000000000000e+000
          3.512627780000e-001 3.391440580000e-001 0.000000000000e+000
          4.499617050000e-001 5.015835640000e-001 0.000000000000e+000
          4.342350580000e-001 5.014905690000e-001 0.000000000000e+000
          4.442913760000e-001 4.878780550000e-001 0.000000000000e+000
          4.428459580000e-001 5.878250430000e-001 0.000000000000e+000
          4.394391230000e-001 6.029122440000e-001 0.000000000000e+000
          4.750000000000e-001 3.000000000000e-001 0.000000000000e+000
          4.621409500000e-001 2.894091980000e-001 0.000000000000e+000
          2.375000000000e-001 0.000000000000e+000 0.000000000000e+000
          2.850000000000e-001 0.000000000000e+000 0.000000000000e+000
          3.328020250000e-001 1.169160730000e-001 0.000000000000e+000
          2.920212520000e-001 1.188378830000e-001 0.000000000000e+000
          2.291558360000e-001 5.885959210000e-001 0.000000000000e+000
          2.136428270000e-001 5.623651400000e-001 0.000000000000e+000
          2.442775890000e-001 5.609000500000e-001 0.000000000000e+000
          4.064206280000e-001 3.047299530000e-001 0.000000000000e+000
          4.182522270000e-001 3.108563120000e-001 0.000000000000e+000
          4.038465520000e-001 6.986003590000e-001 0.000000000000e+000
          4.028638560000e-001 6.886943560000e-001 0.000000000000e+000
          4.152648770000e-001 6.939116710000e-001 0.000000000000e+000
          3.503991620000e-001 3.921412100000e-001 0.000000000000e+000
          4.163989710000e-001 4.975390480000e-001 0.000000000000e+000
          4.089959850000e-001 4.792894720000e-001 0.000000000000e+000
          4.297013580000e-001 4.845435160000e-001 0.000000000000e+000
          1.264745580000e-001 6.127624150000e-001 0.000000000000e+000
          3.453115380000e-001 3.078956290000e-001 0.000000000000e+000
          3.197761870000e-001 5.295124480000e-001 0.000000000000e+000
          3.558901070000e-001 5.414409190000e-001 0.000000000000e+000
[...]
      <PointData Scalars="LIQUID_PRESSURE">
        <DataArray type="Float64" Name="LIQUID_PRESSURE" format="ascii">
          1.009347081829e+006 1.008633322443e+006 1.008374665684e+006 1.009516799700e+006 1.002739863135e+006 1.003122804241e+006 1.002697966668e+006 1.003154305271e+006 1.002780241307e+006 1.002805041815e+006 1.000994705793e+006 1.000934094702e+006 1.001227715838e+006 1.003403343951e+006 1.003055009261e+006 1.001014875568e+006 1.006053367285e+006 1.005853885878e+006 1.005602171064e+006 1.013251387474e+006 1.012471147859e+006 1.012341650505e+006 1.005110451479e+006 1.004816916816e+006 1.004901744175e+006 1.004515342097e+006 1.006371735249e+006 1.003179470799e+006 1.003396820029e+006 1.003098570735e+006 1.003173797959e+006 1.002816949160e+006 1.002548063758e+006 1.002486556364e+006 1.002222497955e+006 1.001979437467e+006 1.001981393914e+006 1.010665922441e+006 1.011273863206e+006 1.010552795367e+006 1.007976204374e+006 1.007347070461e+006 1.007351014275e+006 1.000720677815e+006 1.000808113272e+006 1.001128334543e+006 1.001571662761e+006 1.001174866594e+006 1.013159741700e+006 1.001940025703e+006 1.001665730026e+006 1.002204506439e+006 1.007878084216e+006 1.007698244330e+006 1.007992329975e+006 1.002647155443e+006 1.002078969007e+006 1.002775530725e+006 1.008144315787e+006 1.000606259479e+006 1.000481304029e+006 1.000712218717e+006 1.005298778703e+006 1.004762473684e+006 1.005458616427e+006 1.000957100817e+006 1.000780693680e+006 1.000357753423e+006 1.000221774591e+006 1.000468249478e+006 1.003877177710e+006 1.004257891366e+006 1.004354894116e+006 1.008250084254e+006 1.008045495896e+006 1.007963888295e+006 1.009478390887e+006 1.008982199544e+006 1.008921396296e+006 1.010436865581e+006 1.010708497065e+006 1.011254797513e+006 1.003719223257e+006 1.006055663549e+006 1.001285397446e+006 1.001561162299e+006 1.007441536032e+006 1.007601484272e+006 1.006638635960e+006 1.002251957040e+006 1.003471132662e+006 1.010305862561e+006 1.010371708716e+006 1.010811664228e+006 1.006043178268e+006 1.005906433773e+006 1.006255477206e+006 1.000744311978e+006 1.000712325051e+006 1.007492743866e+006 1.003684333161e+006 1.006510944764e+006 1.000000000000e+006 1.000000000000e+006 1.009983633696e+006 1.009874717093e+006 1.010505105663e+006 1.007185642353e+006 1.007573328723e+006 1.007585718241e+006 1.006975709474e+006 1.007306837479e+006 1.004122452161e+006 1.004124267322e+006 1.004391117448e+006 1.002431975783e+006 1.002136282764e+006 1.008074129225e+006 1.008281809510e+006 1.013895053915e+006 1.013893693926e+006 1.011663932124e+006 1.011626453952e+006 1.002416286559e+006 1.002930522520e+006 1.002959301748e+006 1.007981503779e+006 1.007861392588e+006 1.000278011487e+006 1.000457025100e+006 1.000360336614e+006 1.006267862975e+006 1.004201716682e+006 1.004559460974e+006 1.004456477766e+006 1.001942191231e+006 1.007919449441e+006 1.003574795875e+006 1.003341023567e+006 1.003530806595e+006 1.004121004127e+006 1.003937367701e+006 1.004302121661e+006 1.013904234186e+006 1.012923329913e+006 1.013221425198e+006 1.005538011742e+006 1.005226766493e+006 1.005243106452e+006 1.000739576115e+006 1.000982215500e+006 1.001154907637e+006 1.003248051679e+006 1.006217695789e+006 1.006470946654e+006 1.006095217408e+006 1.001778179098e+006 1.002555236980e+006 1.003163194822e+006 1.004756031949e+006 1.011163828590e+006 1.012032509519e+006 1.011229400785e+006 1.000580515451e+006 1.001096756817e+006 1.001260080309e+006 1.001222395671e+006 1.001437237260e+006 1.002095047815e+006 1.001830448927e+006 1.005186127297e+006 1.005445245874e+006 1.005575140100e+006 1.000491608376e+006 1.004766961418e+006 1.005287114665e+006 1.006655961620e+006 1.003624470169e+006 1.003278534760e+006 1.008369516048e+006 1.006758573359e+006 1.006038640384e+006 1.004133258973e+006 1.004455965834e+006 1.004030273995e+006 1.002917041008e+006 1.000347525188e+006 1.008450434320e+006 1.001479214938e+006 1.008372120112e+006 1.000403758836e+006 1.004649738317e+006 1.005280730651e+006 1.004317075272e+006 1.011599975111e+006 1.010965514606e+006 1.005942612504e+006 1.005588239009e+006 1.004640316756e+006 1.004701068983e+006 1.000196895707e+006 1.001968660005e+006 1.010439066856e+006 1.008409691279e+006 1.008468226594e+006 1.007874516514e+006 1.007609994583e+006 1.007759535267e+006 1.013868981352e+006 1.000649382221e+006 1.009231908285e+006 1.005240286501e+006 1.007116794029e+006 1.007059392535e+006 1.007368769729e+006 1.002034859838e+006 1.001708237988e+006 1.001621439031e+006 1.004965871760e+006 1.007834832383e+006 1.005946035332e+006 1.006766141290e+006 1.002008397817e+006 1.013206516062e+006 1.004617994162e+006 1.008997868934e+006 1.008747486567e+006 1.008499740045e+006 1.000266885130e+006 1.000173448114e+006 1.004587419152e+006 1.004025230287e+006 1.003678137600e+006 1.009275653423e+006 1.008229412917e+006 1.001844211226e+006 1.008186087046e+006 1.000551476081e+006 1.000646429619e+006 1.000321907832e+006 1.000612587841e+006 1.006392229676e+006 1.006630389169e+006 1.000513380540e+006 1.004473945955e+006 1.012017125729e+006 1.003827502684e+006 1.010352901121e+006 1.001288279706e+006 1.002277916104e+006 1.001079105072e+006 1.000574055347e+006 1.009704396780e+006 1.005571933885e+006 1.010947831899e+006 1.007662841310e+006 1.007271916955e+006 1.007168919842e+006 1.006641056132e+006 1.010769064488e+006 1.011111029320e+006 1.005792068908e+006 1.007463211581e+006 1.009886444672e+006 1.009562398113e+006 1.009328542758e+006 1.010877752693e+006 1.010257766127e+006 1.012306441764e+006 1.000093584513e+006 1.000088687219e+006 1.008943983667e+006 1.002524673131e+006 1.012598784751e+006 1.011955010513e+006 1.000896325381e+006 1.011769189622e+006 1.001350418675e+006 1.006803492711e+006 1.002788496463e+006 1.002966131412e+006 1.002139119483e+006 1.007043724731e+006 1.006868911162e+006 1.004512705881e+006 1.004668008709e+006 1.005125465709e+006 1.009209066013e+006 1.012467757962e+006 1.013891832923e+006 1.013235709437e+006 1.006119331840e+006 1.009131775107e+006 1.009835995121e+006 1.009678893280e+006 1.002933750343e+006 1.002768220564e+006 1.006584075230e+006 1.001975420321e+006 1.007450024897e+006 1.007173189950e+006 1.003579930341e+006 1.005580344192e+006 1.002402919727e+006 1.002573996093e+006 1.001671927914e+006 1.011340449655e+006 1.008732573445e+006 1.009363931710e+006 1.008785777408e+006 1.001309568830e+006 1.000910447965e+006 1.004123922583e+006 1.001858314341e+006 1.002369284065e+006 1.002137638714e+006 1.003684310432e+006 1.003273061770e+006 1.003261869170e+006 1.003381686697e+006 1.006360645990e+006 1.012094479598e+006 1.001028092380e+006 1.000915369714e+006 1.008219269495e+006 1.000046494336e+006 1.000768822196e+006 1.000064684977e+006 1.002559670320e+006 1.012200798088e+006 1.006630485625e+006 1.001213758666e+006 1.000633615296e+006 1.005212203179e+006 1.002378343383e+006 1.002992015530e+006 1.004244540829e+006 1.004352524107e+006 1.005748065804e+006 1.002989393439e+006 1.006646021090e+006 1.005880022012e+006 1.005892199458e+006 1.003932408892e+006 1.006678005327e+006 1.005207054094e+006 1.004864283718e+006 1.003385629987e+006 1.009192605121e+006 1.001618130194e+006 1.003719128067e+006 1.001328929228e+006 1.001437900318e+006 1.001181993723e+006 1.011144683007e+006 1.007978174294e+006 1.008418800837e+006 1.001766889505e+006 1.007642525847e+006 1.000673590342e+006 1.001114897262e+006 1.001451787251e+006 1.010681695971e+006 1.011425516170e+006 1.000293774593e+006 1.003505882199e+006 1.003958916824e+006 1.003460012562e+006 1.012937032037e+006 1.003751409021e+006 1.005051426000e+006 1.005561917244e+006 1.007890860782e+006 1.003974860397e+006 1.001313956642e+006 1.001980666301e+006 1.002337827569e+006 1.002413292436e+006 1.002693911957e+006 1.005130349012e+006 1.001489119073e+006 1.005991336788e+006 1.007315752717e+006 1.011910117687e+006 1.004048588579e+006 1.003541182149e+006 1.003609992149e+006 1.013353607701e+006 1.006261399153e+006 1.000922739319e+006 1.005701295609e+006 1.000169556069e+006 1.012579799945e+006 1.007095227032e+006 1.001732715046e+006 1.003490040546e+006 1.003905254640e+006 1.001964618952e+006 1.001723920076e+006 1.001847699945e+006 1.012537492996e+006 1.012073407638e+006 1.004816100822e+006 1.003305763031e+006 1.010233264995e+006 1.001330094524e+006 1.003020238021e+006 1.009592291582e+006 1.002932729941e+006 1.006637185818e+006 1.013325450171e+006 1.009314748900e+006 1.009020733191e+006 1.001752846713e+006 1.003691216316e+006 1.002408132278e+006 1.006898228692e+006 1.006750029269e+006 1.002787566218e+006 1.000919258424e+006 1.005649690206e+006 1.001475709684e+006 1.000915293327e+006 1.000382812985e+006 1.004216776341e+006 1.008518498968e+006 1.008834890173e+006 1.001415638432e+006 1.007352193004e+006 1.005896470576e+006 1.000085124501e+006 1.000079027054e+006 1.007697520016e+006 1.006615440355e+006 1.001003146756e+006 1.000080593764e+006 1.000641938548e+006 1.008056925353e+006 1.007406400030e+006 1.007519349262e+006 1.011826081743e+006 1.012524765124e+006 1.010032902379e+006 1.005370473882e+006 1.005046409520e+006 1.001228083415e+006 1.000557963741e+006 1.000971479986e+006 1.013901225345e+006 1.010207729891e+006 1.002593675182e+006 1.001626683856e+006 1.001180856011e+006 1.002464300107e+006 1.002585984191e+006 1.013239260914e+006 1.006102730691e+006 1.003943018564e+006 1.009860134417e+006 1.002077475491e+006 1.005526519117e+006 1.013882473340e+006 1.006552828173e+006 1.003806037103e+006 1.005469803114e+006 1.000934157961e+006 1.000663615199e+006 1.008006333878e+006 1.011010829274e+006 1.000334853782e+006 1.000397023668e+006 1.000518214800e+006 1.009463056778e+006 1.009983071027e+006 1.009240781631e+006 1.008592713207e+006 1.000456636439e+006 1.008655271494e+006 1.008619842494e+006 1.004668717835e+006 1.004722714847e+006 1.012314205291e+006 1.003990051469e+006 1.009494537111e+006 1.004471304686e+006 1.008862812632e+006 1.002723591100e+006 1.011111790068e+006 1.000757197094e+006 1.002280847392e+006 1.009688289629e+006 1.000095237930e+006 1.004924762394e+006 1.000078742279e+006 1.007502602630e+006 1.000089403124e+006 1.001365475407e+006 1.000074173479e+006 1.007345767293e+006 1.000946827227e+006 1.002675707134e+006 1.013896054879e+006 1.013103488678e+006 1.013318826225e+006 1.011501687917e+006 1.004965801257e+006 1.006690586885e+006 1.001665354997e+006 1.001284750553e+006 1.000094241199e+006 1.000082627366e+006 1.000301555449e+006 1.004090183030e+006 1.003690738468e+006 1.001644734621e+006 1.000339876276e+006 1.006847640629e+006 1.000097198587e+006 1.000097504073e+006 1.000183334663e+006 1.009169565939e+006 1.000226131876e+006 1.000095205557e+006 1.000215775544e+006 1.001623374977e+006 1.009802651699e+006 1.002257461646e+006 1.000223647747e+006 1.000827145738e+006 1.004730271138e+006 1.011826094270e+006 1.013880848939e+006 1.005997347048e+006 1.000083054837e+006 1.012704204394e+006 1.000098167925e+006 1.005702662380e+006 1.000379153414e+006 1.001655797210e+006 1.001522769732e+006 1.000097802112e+006 1.010199875019e+006 1.002054079680e+006 1.001678392271e+006 1.004576067583e+006 1.000096827556e+006 1.000243242247e+006 1.000647150499e+006 1.006202653816e+006 1.006796586290e+006 1.001417022153e+006 1.001036689589e+006 1.000818697880e+006 1.000481613200e+006 1.006984230325e+006 1.007136307563e+006 1.013902565693e+006 1.013029897417e+006 1.013879298680e+006 1.006966813189e+006 1.009810042321e+006 1.000196595578e+006 1.000311400217e+006 1.000443705520e+006 1.000405842936e+006 1.005497133421e+006 1.006114707473e+006 1.000081883257e+006 1.000156026113e+006 1.010107520539e+006 1.010395616483e+006 1.000803727462e+006 1.004421865548e+006 1.002856487566e+006 1.009302696880e+006 1.002211360992e+006 1.011850203566e+006 1.006637144115e+006 1.006567682926e+006 1.002091713668e+006 1.001164587409e+006 1.004208878304e+006 1.005006009326e+006 1.008846526780e+006 1.003871152317e+006 1.008422505638e+006 1.011401369745e+006 1.002521893434e+006 1.006359956499e+006 1.009008150547e+006 1.008287630721e+006 1.007788232756e+006 1.012601807508e+006 1.008164224463e+006 1.005224844731e+006 1.008409271487e+006 1.007928816119e+006 1.008519374099e+006 1.001524790002e+006 1.002388907261e+006 1.008629363491e+006 
        </DataArray>
        <DataArray type="Float64" Name="MEAN_PRESSURE" format="ascii">