<?xml version="1.0"?>
<VTKFile type="UnstructuredGrid" version="0.1" byte_order="LittleEndian">
  <UnstructuredGrid>
    <Piece NumberOfPoints="601" NumberOfCells="1114">
      <Points>
        <DataArray type="Float64" NumberOfComponents="3" format="ascii">
          9.510000000000e-002 2.350697990000e-001 0.000000000000e+000
          1.063631230000e-001 2.714774400000e-001 0.000000000000e+000
          6.050000000000e-002 2.846704020000e-001 0.000000000000e+000
          5.720000000000e-002 2.264127830000e-001 0.000000000000e+000
          3.607917390000e-001 5.721080920000e-001 0.000000000000e+000
          3.768558020000e-001 5.525748860000e-001 0.000000000000e+000
          3.789778370000e-001 5.742477180000e-001 0.000000000000e+000
          3.136481190000e-001 5.509609410000e-001 0.000000000000e+000
          3.128188330000e-001 5.700416560000e-001 0.000000000000e+000
          2.881707800000e-001 5.687733920000e-001 0.000000000000e+000
          4.429907380000e-001 6.611719170000e-001 0.000000000000e+000
          4.320814310000e-001 6.642626630000e-001 0.000000000000e+000
          4.324781590000e-001 6.492754290000e-001 0.000000000000e+000
          2.969991220000e-001 5.382558640000e-001 0.000000000000e+000
          3.554110690000e-001 5.560310200000e-001 0.000000000000e+000
          4.214534510000e-001 6.601358340000e-001 0.000000000000e+000
          3.005429170000e-001 4.030809660000e-001 0.000000000000e+000
          3.340207110000e-001 4.132574770000e-001 0.000000000000e+000
          3.087980550000e-001 4.260963220000e-001 0.000000000000e+000
          3.053610030000e-001 3.660000000000e-002 0.000000000000e+000
          3.226354220000e-001 7.560000000000e-002 0.000000000000e+000
          2.746654270000e-001 8.220000000000e-002 0.000000000000e+000
          3.714377890000e-001 4.511813880000e-001 0.000000000000e+000
          3.808127360000e-001 4.661551930000e-001 0.000000000000e+000
          3.485926620000e-001 4.618266300000e-001 0.000000000000e+000
          3.675564050000e-001 4.815381760000e-001 0.000000000000e+000
          3.187177420000e-001 3.868419500000e-001 0.000000000000e+000
          4.410873470000e-001 5.496885300000e-001 0.000000000000e+000
          4.522404520000e-001 5.386010270000e-001 0.000000000000e+000
          4.593241840000e-001 5.538167910000e-001 0.000000000000e+000
          4.014960550000e-001 5.499755270000e-001 0.000000000000e+000
          3.980412370000e-001 5.681797670000e-001 0.000000000000e+000
          4.118653570000e-001 5.818986230000e-001 0.000000000000e+000
          4.290214690000e-001 5.850384460000e-001 0.000000000000e+000
          4.227055460000e-001 5.985109270000e-001 0.000000000000e+000
          4.262176060000e-001 6.109134930000e-001 0.000000000000e+000
          4.083256760000e-001 6.108101250000e-001 0.000000000000e+000
          4.074199840000e-001 1.678065540000e-001 0.000000000000e+000
          4.338525000000e-001 1.367993340000e-001 0.000000000000e+000
          4.419993050000e-001 1.735765240000e-001 0.000000000000e+000
          2.938198300000e-001 3.050000000000e-001 0.000000000000e+000
          3.040856940000e-001 3.370911280000e-001 0.000000000000e+000
          2.728783300000e-001 3.368892400000e-001 0.000000000000e+000
          4.245255210000e-001 6.751478260000e-001 0.000000000000e+000
          4.115146200000e-001 6.706797750000e-001 0.000000000000e+000
          2.172506940000e-001 6.543239900000e-001 0.000000000000e+000
          2.369118240000e-001 6.316770480000e-001 0.000000000000e+000
          2.468783150000e-001 6.519368170000e-001 0.000000000000e+000
          2.564526880000e-001 4.120000000000e-002 0.000000000000e+000
          3.448377420000e-001 6.129073000000e-001 0.000000000000e+000
          3.251379980000e-001 6.268927700000e-001 0.000000000000e+000
          3.273312140000e-001 5.994122080000e-001 0.000000000000e+000
          4.750000000000e-001 3.100000000000e-001 0.000000000000e+000
          4.622391060000e-001 3.191759170000e-001 0.000000000000e+000
          4.632789630000e-001 3.041741210000e-001 0.000000000000e+000
          1.686277520000e-001 5.768153050000e-001 0.000000000000e+000
          1.600733810000e-001 6.057946050000e-001 0.000000000000e+000
          1.336495140000e-001 5.702660460000e-001 0.000000000000e+000
          2.648985480000e-001 2.964243830000e-001 0.000000000000e+000
          4.750000000000e-001 6.810086020000e-001 0.000000000000e+000
          4.639688660000e-001 6.874614690000e-001 0.000000000000e+000
          4.675279960000e-001 6.755881310000e-001 0.000000000000e+000
          1.561569900000e-001 4.415648520000e-001 0.000000000000e+000
          1.171065000000e-001 4.689182860000e-001 0.000000000000e+000
          1.132137760000e-001 4.334105240000e-001 0.000000000000e+000
          4.561931150000e-001 6.630934020000e-001 0.000000000000e+000
          4.518916820000e-001 6.720976590000e-001 0.000000000000e+000
          4.522697350000e-001 6.939175990000e-001 0.000000000000e+000
          4.419733660000e-001 7.008709150000e-001 0.000000000000e+000
          4.414427990000e-001 6.880619320000e-001 0.000000000000e+000
          3.033683560000e-001 5.140865850000e-001 0.000000000000e+000
          2.832124480000e-001 4.946651860000e-001 0.000000000000e+000
          3.072265520000e-001 4.897188920000e-001 0.000000000000e+000
          4.221152260000e-001 2.910297120000e-001 0.000000000000e+000
          4.412966690000e-001 3.014644090000e-001 0.000000000000e+000
          4.299153840000e-001 3.056276890000e-001 0.000000000000e+000
          4.222588150000e-001 2.283775240000e-001 0.000000000000e+000
          4.357605810000e-001 2.536862780000e-001 0.000000000000e+000
          4.167418710000e-001 2.567880820000e-001 0.000000000000e+000
          1.638570440000e-001 1.794837980000e-001 0.000000000000e+000
          1.278151710000e-001 1.656272250000e-001 0.000000000000e+000
          1.617419920000e-001 1.377643790000e-001 0.000000000000e+000
          2.790434020000e-001 5.221415640000e-001 0.000000000000e+000
          1.305952380000e-001 4.029576320000e-001 0.000000000000e+000
          4.451347220000e-001 6.463338270000e-001 0.000000000000e+000
          4.413636270000e-001 6.322598450000e-001 0.000000000000e+000
          0.000000000000e+000 3.322666670000e-001 0.000000000000e+000
          4.030000000000e-002 3.241083040000e-001 0.000000000000e+000
          4.880000000000e-002 3.732204480000e-001 0.000000000000e+000
          4.096990520000e-001 5.970059090000e-001 0.000000000000e+000
          4.359622120000e-001 5.348093080000e-001 0.000000000000e+000
          8.634709500000e-002 1.861646220000e-001 0.000000000000e+000
          3.820000000000e-002 1.828048070000e-001 0.000000000000e+000
          1.912784940000e-001 1.603665230000e-001 0.000000000000e+000
          4.750000000000e-001 4.036036940000e-001 0.000000000000e+000
          4.642303300000e-001 4.105791900000e-001 0.000000000000e+000
          4.598121640000e-001 3.927740700000e-001 0.000000000000e+000
          2.401182360000e-001 6.738008570000e-001 0.000000000000e+000
          4.389592840000e-001 6.755823070000e-001 0.000000000000e+000
          4.750000000000e-001 3.296588890000e-001 0.000000000000e+000
          4.476987140000e-001 5.239335440000e-001 0.000000000000e+000
          0.000000000000e+000 3.797333330000e-001 0.000000000000e+000
          4.375000000000e-001 7.120000000000e-001 0.000000000000e+000
          4.475000000000e-001 7.120000000000e-001 0.000000000000e+000
          3.486106110000e-001 2.026073050000e-001 0.000000000000e+000
          3.165227960000e-001 2.081622480000e-001 0.000000000000e+000
          3.392437750000e-001 1.760088600000e-001 0.000000000000e+000
          3.790988860000e-001 3.453262370000e-001 0.000000000000e+000
          3.655035420000e-001 3.255507720000e-001 0.000000000000e+000
          3.843657540000e-001 3.249187520000e-001 0.000000000000e+000
          3.620975330000e-001 3.560346370000e-001 0.000000000000e+000
          3.512627780000e-001 3.391440580000e-001 0.000000000000e+000
          4.499617050000e-001 5.015835640000e-001 0.000000000000e+000
          4.342350580000e-001 5.014905690000e-001 0.000000000000e+000
          4.442913760000e-001 4.878780550000e-001 0.000000000000e+000
          4.428459580000e-001 5.878250430000e-001 0.000000000000e+000
          4.394391230000e-001 6.029122440000e-001 0.000000000000e+000
          4.750000000000e-001 3.000000000000e-001 0.000000000000e+000
          4.621409500000e-001 2.894091980000e-001 0.000000000000e+000
          2.375000000000e-001 0.000000000000e+000 0.000000000000e+000
          2.850000000000e-001 0.000000000000e+000 0.000000000000e+000
          3.328020250000e-001 1.169160730000e-001 0.000000000000e+000
          2.920212520000e-001 1.188378830000e-001 0.000000000000e+000
          2.291558360000e-001 5.885959210000e-001 0.000000000000e+000
          2.136428270000e-001 5.623651400000e-001 0.000000000000e+000
          2.442775890000e-001 5.609000500000e-001 0.000000000000e+000
          4.064206280000e-001 3.047299530000e-001 0.000000000000e+000
          4.182522270000e-001 3.108563120000e-001 0.000000000000e+000
          4.038465520000e-001 6.986003590000e-001 0.000000000000e+000
          4.028638560000e-001 6.886943560000e-001 0.000000000000e+000
          4.152648770000e-001 6.939116710000e-001 0.000000000000e+000
          3.503991620000e-001 3.921412100000e-001 0.000000000000e+000
          4.163989710000e-001 4.975390480000e-001 0.000000000000e+000
          4.089959850000e-001 4.792894720000e-001 0.000000000000e+000
          4.297013580000e-001 4.845435160000e-001 0.000000000000e+000
          1.264745580000e-001 6.127624150000e-001 0.000000000000e+000
          3.453115380000e-001 3.078956290000e-001 0.000000000000e+000
          3.197761870000e-001 5.295124480000e-001 0.000000000000e+000
          3.558901070000e-001 5.414409190000e-001 0.000000000000e+000
[...]
      <PointData Scalars="LIQUID_PRESSURE">
        <DataArray type="Float64" Name="LIQUID_PRESSURE" format="ascii">
          1.009349256834e+006 1.008635361843e+006 1.008376656393e+006 1.009519003890e+006 1.002740697863e+006 1.003123714995e+006 1.002698785137e+006 1.003155243991e+006 1.002781104243e+006 1.002805920019e+006 1.000995084084e+006 1.000934478988e+006 1.001228163935e+006 1.003404338696e+006 1.003055912745e+006 1.001015273968e+006 1.006054896664e+006 1.005855372024e+006 1.005603608688e+006 1.013252729744e+006 1.012473917807e+006 1.012344557811e+006 1.005111781197e+006 1.004818184400e+006 1.004903033769e+006 1.004516548778e+006 1.006373327454e+006 1.003180379022e+006 1.003397775236e+006 1.003099459143e+006 1.003174712641e+006 1.002817786973e+006 1.002548837349e+006 1.002487311064e+006 1.002223193911e+006 1.001980075617e+006 1.001982040182e+006 1.010668398343e+006 1.011276397506e+006 1.010555260217e+006 1.007978117890e+006 1.007348858929e+006 1.007352803832e+006 1.000721063669e+006 1.000808556938e+006 1.001129115160e+006 1.001572237788e+006 1.001175308773e+006 1.013160890042e+006 1.001940698420e+006 1.001666378335e+006 1.002205243403e+006 1.007879986277e+006 1.007700109193e+006 1.007994256385e+006 1.002648033848e+006 1.002079762969e+006 1.002776441924e+006 1.008146261782e+006 1.000606242373e+006 1.000480230002e+006 1.000712570251e+006 1.005300178879e+006 1.004763780484e+006 1.005460052720e+006 1.000957468135e+006 1.000781045372e+006 1.000355864954e+006 1.000219896938e+006 1.000468003285e+006 1.003878266860e+006 1.004259062320e+006 1.004356079320e+006 1.008252063293e+006 1.008047433567e+006 1.007965808114e+006 1.009480628666e+006 1.008984335392e+006 1.008923515023e+006 1.010439258716e+006 1.010710947069e+006 1.011257280263e+006 1.003720287000e+006 1.006057210658e+006 1.001285857260e+006 1.001561694429e+006 1.007443349453e+006 1.007603327746e+006 1.006640297035e+006 1.002252664537e+006 1.003472105842e+006 1.010308227398e+006 1.010374090680e+006 1.010814127648e+006 1.006044697688e+006 1.005907924612e+006 1.006257041049e+006 1.000745855708e+006 1.000712698930e+006 1.007494565924e+006 1.003685351765e+006 1.006512582068e+006 1.000000000000e+006 1.000000000000e+006 1.009985948979e+006 1.009877004061e+006 1.010507526904e+006 1.007187398931e+006 1.007575164134e+006 1.007587557022e+006 1.006977422962e+006 1.007308618287e+006 1.004123565559e+006 1.004125382276e+006 1.004392288812e+006 1.002432714781e+006 1.002136953755e+006 1.008076072687e+006 1.008283797645e+006 1.013910397404e+006 1.013909214640e+006 1.011666610754e+006 1.011629137651e+006 1.002417112436e+006 1.002931446673e+006 1.002960224967e+006 1.007983425520e+006 1.007863290256e+006 1.000271219007e+006 1.000455368674e+006 1.000356597632e+006 1.006269432324e+006 1.004202850101e+006 1.004560671170e+006 1.004457664114e+006 1.001942979348e+006 1.007921354053e+006 1.003575818821e+006 1.003341987112e+006 1.003531806840e+006 1.004122116481e+006 1.003938440657e+006 1.004303273224e+006 1.013917901992e+006 1.012924931843e+006 1.013222040073e+006 1.005539425705e+006 1.005228114688e+006 1.005244458748e+006 1.000740619733e+006 1.000982822643e+006 1.001155361375e+006 1.003249055563e+006 1.006219253168e+006 1.006472555857e+006 1.006096748614e+006 1.001778855942e+006 1.002556070995e+006 1.003164150551e+006 1.004757282546e+006 1.011166318680e+006 1.012035303346e+006 1.011231894937e+006 1.000580480654e+006 1.001097175214e+006 1.001260530143e+006 1.001222834377e+006 1.001437733454e+006 1.002095705908e+006 1.001831044322e+006 1.005187470435e+006 1.005446644854e+006 1.005576564576e+006 1.000491383718e+006 1.004768227673e+006 1.005288485462e+006 1.006657612333e+006 1.003625557970e+006 1.003279552774e+006 1.008371521835e+006 1.006760253291e+006 1.006040180571e+006 1.004134384709e+006 1.004457156851e+006 1.004031374909e+006 1.002917890262e+006 1.000345291218e+006 1.008452458839e+006 1.001479734000e+006 1.008374109803e+006 1.000400965163e+006 1.004651025237e+006 1.005282135850e+006 1.004318301620e+006 1.011602564404e+006 1.010968058030e+006 1.005944111071e+006 1.005589663181e+006 1.004641540883e+006 1.004702306776e+006 1.000189489665e+006 1.001969358544e+006 1.010441476436e+006 1.008411690136e+006 1.008470239126e+006 1.007876418452e+006 1.007611841132e+006 1.007761412892e+006 1.013887392048e+006 1.000649531474e+006 1.009234089374e+006 1.005241644832e+006 1.007118537723e+006 1.007061124130e+006 1.007370565995e+006 1.002035534098e+006 1.001708831890e+006 1.001622026174e+006 1.004967165198e+006 1.007836718571e+006 1.005947564949e+006 1.006767824633e+006 1.002009154814e+006 1.013207685373e+006 1.004619264346e+006 1.008999989043e+006 1.008749560588e+006 1.008501761565e+006 1.000261729709e+006 1.000169212542e+006 1.004588697351e+006 1.004026407633e+006 1.003679236234e+006 1.009277831739e+006 1.008231385519e+006 1.001844813533e+006 1.008188054743e+006 1.000551410221e+006 1.000647450297e+006 1.000316967364e+006 1.000613283546e+006 1.006393822043e+006 1.006632036378e+006 1.000512823394e+006 1.004475147829e+006 1.012019988530e+006 1.003828551439e+006 1.010355330518e+006 1.001288759748e+006 1.002278635449e+006 1.001079500499e+006 1.000574132506e+006 1.009706637493e+006 1.005573360677e+006 1.010950369322e+006 1.007664692588e+006 1.007273693169e+006 1.007170674882e+006 1.006642708893e+006 1.010771511783e+006 1.011113496689e+006 1.005793536403e+006 1.007465023526e+006 1.009888773384e+006 1.009564669030e+006 1.009330755279e+006 1.010880254718e+006 1.010260139214e+006 1.012309386982e+006 1.000080723625e+006 1.000075202625e+006 1.008946082909e+006 1.002525550904e+006 1.012601360718e+006 1.011957844418e+006 1.000897039181e+006 1.011771934397e+006 1.001350953712e+006 1.006805170928e+006 1.002789469652e+006 1.002967103482e+006 1.002139845168e+006 1.007045452123e+006 1.006870603620e+006 1.004513936826e+006 1.004669275746e+006 1.005126816577e+006 1.009211235050e+006 1.012470567903e+006 1.013907320035e+006 1.013237367093e+006 1.006120867587e+006 1.009133911094e+006 1.009838259725e+006 1.009681133112e+006 1.002934609035e+006 1.002769038812e+006 1.006585708078e+006 1.001976073647e+006 1.007451837845e+006 1.007174945131e+006 1.003580973374e+006 1.005581806065e+006 1.002403710765e+006 1.002574811155e+006 1.001672504135e+006 1.011343007603e+006 1.008734634574e+006 1.009366118019e+006 1.008787851366e+006 1.001310069233e+006 1.000911324976e+006 1.004125072682e+006 1.001858931656e+006 1.002370006173e+006 1.002138305735e+006 1.003685332347e+006 1.003273993779e+006 1.003262793534e+006 1.003382637847e+006 1.006362231915e+006 1.012097281957e+006 1.001028607328e+006 1.000915961068e+006 1.008221236132e+006 1.000036502561e+006 1.000771147790e+006 1.000051900716e+006 1.002560453347e+006 1.012203744011e+006 1.006632128414e+006 1.001214190619e+006 1.000634742527e+006 1.005213576718e+006 1.002379173392e+006 1.002992961220e+006 1.004245685261e+006 1.004353704908e+006 1.005749524734e+006 1.002990256847e+006 1.006647668003e+006 1.005881509227e+006 1.005893690688e+006 1.003933481716e+006 1.006679667473e+006 1.005208445526e+006 1.004865555173e+006 1.003386642147e+006 1.009194761125e+006 1.001618671915e+006 1.003720228114e+006 1.001329446861e+006 1.001438435865e+006 1.001182452397e+006 1.011147170434e+006 1.007980093680e+006 1.008420810638e+006 1.001767515588e+006 1.007644378487e+006 1.000674242428e+006 1.001115305557e+006 1.001452357444e+006 1.010684139528e+006 1.011428066957e+006 1.000287632590e+006 1.003506926885e+006 1.003960057190e+006 1.003460992608e+006 1.012938355575e+006 1.003752453430e+006 1.005052757008e+006 1.005563350212e+006 1.007892761001e+006 1.003975988488e+006 1.001314685174e+006 1.001981411404e+006 1.002338541667e+006 1.002414048260e+006 1.002694846620e+006 1.005131691890e+006 1.001489628083e+006 1.005992876057e+006 1.007317537274e+006 1.011912856839e+006 1.004049738085e+006 1.003542168295e+006 1.003610993669e+006 1.013356186324e+006 1.006262966239e+006 1.000924143258e+006 1.005702760065e+006 1.000165536484e+006 1.012582475352e+006 1.007096966720e+006 1.001733296434e+006 1.003491022660e+006 1.003906326231e+006 1.001965244243e+006 1.001724486866e+006 1.001848297536e+006 1.012540231339e+006 1.012076300831e+006 1.004817366374e+006 1.003306725572e+006 1.010235610431e+006 1.001330636418e+006 1.003021112877e+006 1.009594529194e+006 1.002933614820e+006 1.006638829348e+006 1.013327571430e+006 1.009316963721e+006 1.009022880611e+006 1.001753578635e+006 1.003692244354e+006 1.002408895290e+006 1.006899926588e+006 1.006751696339e+006 1.002788384957e+006 1.000919631759e+006 1.005651147879e+006 1.001476030810e+006 1.000916938722e+006 1.000379923059e+006 1.004217922540e+006 1.008520532216e+006 1.008836986510e+006 1.001416130123e+006 1.007353988648e+006 1.005897963952e+006 1.000071583167e+006 1.000065297659e+006 1.007699382657e+006 1.006617086238e+006 1.001003569205e+006 1.000066840009e+006 1.000643699262e+006 1.008058854183e+006 1.007408203450e+006 1.007521175711e+006 1.011828756805e+006 1.012527447053e+006 1.010035278008e+006 1.005371852169e+006 1.005047719422e+006 1.001228753738e+006 1.000558806620e+006 1.000972864131e+006 1.013915354341e+006 1.010210107899e+006 1.002594487095e+006 1.001627301562e+006 1.001181310204e+006 1.002465043548e+006 1.002586756078e+006 1.013240678670e+006 1.006104272223e+006 1.003944096040e+006 1.009862440525e+006 1.002078168796e+006 1.005527957621e+006 1.013899102264e+006 1.006554472314e+006 1.003807083563e+006 1.005471204450e+006 1.000934597323e+006 1.000664147375e+006 1.008008253652e+006 1.011013294121e+006 1.000330138611e+006 1.000394184121e+006 1.000517762786e+006 1.009465257584e+006 1.009985370092e+006 1.009242941668e+006 1.008594764544e+006 1.000455517430e+006 1.008657338287e+006 1.008621903287e+006 1.004669974774e+006 1.004723977120e+006 1.012317165781e+006 1.003991158431e+006 1.009496767482e+006 1.004472539816e+006 1.008864926630e+006 1.002724394237e+006 1.011114314721e+006 1.000757774850e+006 1.002281549996e+006 1.009690552877e+006 1.000082682830e+006 1.004926049379e+006 1.000072344162e+006 1.007504425526e+006 1.000075829623e+006 1.001365979306e+006 1.000060671569e+006 1.007347557236e+006 1.000947276172e+006 1.002676502003e+006 1.013910990726e+006 1.013105259450e+006 1.013320806294e+006 1.011504248046e+006 1.004967131948e+006 1.006692242383e+006 1.001666003541e+006 1.001285223358e+006 1.000081412952e+006 1.000069567901e+006 1.000295454264e+006 1.004091306006e+006 1.003691778501e+006 1.001645418557e+006 1.000335349833e+006 1.006849327863e+006 1.000085411756e+006 1.000087288256e+006 1.000174224787e+006 1.009171708586e+006 1.000217825129e+006 1.000082569422e+006 1.000206661384e+006 1.001623917173e+006 1.009804918222e+006 1.002258200165e+006 1.000214882255e+006 1.000828719082e+006 1.004731514000e+006 1.011828861666e+006 1.013897601438e+006 1.005998875701e+006 1.000075944843e+006 1.012706705479e+006 1.000086011033e+006 1.005704110481e+006 1.000376375881e+006 1.001656355745e+006 1.001523305579e+006 1.000086743498e+006 1.010202215280e+006 1.002054813744e+006 1.001679068257e+006 1.004577277651e+006 1.000084642747e+006 1.000235284076e+006 1.000648284811e+006 1.006204217292e+006 1.006798262967e+006 1.001417793336e+006 1.001037071447e+006 1.000819095271e+006 1.000481042397e+006 1.006985945999e+006 1.007138054581e+006 1.013916427109e+006 1.013031824341e+006 1.013896242904e+006 1.006968524995e+006 1.009812371824e+006 1.000187151045e+006 1.000306250822e+006 1.000441973895e+006 1.000403181243e+006 1.005498539496e+006 1.006116255826e+006 1.000068176205e+006 1.000148328012e+006 1.010109851098e+006 1.010398014448e+006 1.000804078605e+006 1.004423042593e+006 1.002857321172e+006 1.009304863395e+006 1.002212045216e+006 1.011852987924e+006 1.006638787684e+006 1.006569311929e+006 1.002092444872e+006 1.001165034174e+006 1.004210076703e+006 1.005007312163e+006 1.008848608613e+006 1.003872225948e+006 1.008424523575e+006 1.011403908488e+006 1.002522651688e+006 1.006361542473e+006 1.009010262718e+006 1.008289604122e+006 1.007790108843e+006 1.012604471773e+006 1.008166174175e+006 1.005226194198e+006 1.008411268123e+006 1.007930719881e+006 1.008521391662e+006 1.001525284659e+006 1.002389704691e+006 1.008631402043e+006 
        </DataArray>
        <DataArray type="Float64" Name="MEAN_PRESSURE" format="ascii">