<?xml version="1.0"?>
<VTKFile type="UnstructuredGrid" version="0.1" byte_order="LittleEndian">
  <UnstructuredGrid>
    <Piece NumberOfPoints="601" NumberOfCells="1114">
      <Points>
        <DataArray type="Float64" NumberOfComponents="3" format="ascii">
          9.510000000000e-002 2.350697990000e-001 0.000000000000e+000
          1.063631230000e-001 2.714774400000e-001 0.000000000000e+000
          6.050000000000e-002 2.846704020000e-001 0.000000000000e+000
          5.720000000000e-002 2.264127830000e-001 0.000000000000e+000
          3.607917390000e-001 5.721080920000e-001 0.000000000000e+000
          3.768558020000e-001 5.525748860000e-001 0.000000000000e+000
          3.789778370000e-001 5.742477180000e-001 0.000000000000e+000
          3.136481190000e-001 5.509609410000e-001 0.000000000000e+000
          3.128188330000e-001 5.700416560000e-001 0.000000000000e+000
          2.881707800000e-001 5.687733920000e-001 0.000000000000e+000
          4.429907380000e-001 6.611719170000e-001 0.000000000000e+000
          4.320814310000e-001 6.642626630000e-001 0.000000000000e+000
          4.324781590000e-001 6.492754290000e-001 0.000000000000e+000
          2.969991220000e-001 5.382558640000e-001 0.000000000000e+000
          3.554110690000e-001 5.560310200000e-001 0.000000000000e+000
          4.214534510000e-001 6.601358340000e-001 0.000000000000e+000
          3.005429170000e-001 4.030809660000e-001 0.000000000000e+000
          3.340207110000e-001 4.132574770000e-001 0.000000000000e+000
          3.087980550000e-001 4.260963220000e-001 0.000000000000e+000
          3.053610030000e-001 3.660000000000e-002 0.000000000000e+000
          3.226354220000e-001 7.560000000000e-002 0.000000000000e+000
          2.746654270000e-001 8.220000000000e-002 0.000000000000e+000
          3.714377890000e-001 4.511813880000e-001 0.000000000000e+000
          3.808127360000e-001 4.661551930000e-001 0.000000000000e+000
          3.485926620000e-001 4.618266300000e-001 0.000000000000e+000
          3.675564050000e-001 4.815381760000e-001 0.000000000000e+000
          3.187177420000e-001 3.868419500000e-001 0.000000000000e+000
          4.410873470000e-001 5.496885300000e-001 0.000000000000e+000
          4.522404520000e-001 5.386010270000e-001 0.000000000000e+000
          4.593241840000e-001 5.538167910000e-001 0.000000000000e+000
          4.014960550000e-001 5.499755270000e-001 0.000000000000e+000
          3.980412370000e-001 5.681797670000e-001 0.000000000000e+000
          4.118653570000e-001 5.818986230000e-001 0.000000000000e+000
          4.290214690000e-001 5.850384460000e-001 0.000000000000e+000
          4.227055460000e-001 5.985109270000e-001 0.000000000000e+000
          4.262176060000e-001 6.109134930000e-001 0.000000000000e+000
          4.083256760000e-001 6.108101250000e-001 0.000000000000e+000
          4.074199840000e-001 1.678065540000e-001 0.000000000000e+000
          4.338525000000e-001 1.367993340000e-001 0.000000000000e+000
          4.419993050000e-001 1.735765240000e-001 0.000000000000e+000
          2.938198300000e-001 3.050000000000e-001 0.000000000000e+000
          3.040856940000e-001 3.370911280000e-001 0.000000000000e+000
          2.728783300000e-001 3.368892400000e-001 0.000000000000e+000
          4.245255210000e-001 6.751478260000e-001 0.000000000000e+000
          4.115146200000e-001 6.706797750000e-001 0.000000000000e+000
          2.172506940000e-001 6.543239900000e-001 0.000000000000e+000
          2.369118240000e-001 6.316770480000e-001 0.000000000000e+000
          2.468783150000e-001 6.519368170000e-001 0.000000000000e+000
          2.564526880000e-001 4.120000000000e-002 0.000000000000e+000
          3.448377420000e-001 6.129073000000e-001 0.000000000000e+000
          3.251379980000e-001 6.268927700000e-001 0.000000000000e+000
          3.273312140000e-001 5.994122080000e-001 0.000000000000e+000
          4.750000000000e-001 3.100000000000e-001 0.000000000000e+000
          4.622391060000e-001 3.191759170000e-001 0.000000000000e+000
          4.632789630000e-001 3.041741210000e-001 0.000000000000e+000
          1.686277520000e-001 5.768153050000e-001 0.000000000000e+000
          1.600733810000e-001 6.057946050000e-001 0.000000000000e+000
          1.336495140000e-001 5.702660460000e-001 0.000000000000e+000
          2.648985480000e-001 2.964243830000e-001 0.000000000000e+000
          4.750000000000e-001 6.810086020000e-001 0.000000000000e+000
          4.639688660000e-001 6.874614690000e-001 0.000000000000e+000
          4.675279960000e-001 6.755881310000e-001 0.000000000000e+000
          1.561569900000e-001 4.415648520000e-001 0.000000000000e+000
          1.171065000000e-001 4.689182860000e-001 0.000000000000e+000
          1.132137760000e-001 4.334105240000e-001 0.000000000000e+000
          4.561931150000e-001 6.630934020000e-001 0.000000000000e+000
          4.518916820000e-001 6.720976590000e-001 0.000000000000e+000
          4.522697350000e-001 6.939175990000e-001 0.000000000000e+000
          4.419733660000e-001 7.008709150000e-001 0.000000000000e+000
          4.414427990000e-001 6.880619320000e-001 0.000000000000e+000
          3.033683560000e-001 5.140865850000e-001 0.000000000000e+000
          2.832124480000e-001 4.946651860000e-001 0.000000000000e+000
          3.072265520000e-001 4.897188920000e-001 0.000000000000e+000
          4.221152260000e-001 2.910297120000e-001 0.000000000000e+000
          4.412966690000e-001 3.014644090000e-001 0.000000000000e+000
          4.299153840000e-001 3.056276890000e-001 0.000000000000e+000
          4.222588150000e-001 2.283775240000e-001 0.000000000000e+000
          4.357605810000e-001 2.536862780000e-001 0.000000000000e+000
          4.167418710000e-001 2.567880820000e-001 0.000000000000e+000
          1.638570440000e-001 1.794837980000e-001 0.000000000000e+000
          1.278151710000e-001 1.656272250000e-001 0.000000000000e+000
          1.617419920000e-001 1.377643790000e-001 0.000000000000e+000
          2.790434020000e-001 5.221415640000e-001 0.000000000000e+000
          1.305952380000e-001 4.029576320000e-001 0.000000000000e+000
          4.451347220000e-001 6.463338270000e-001 0.000000000000e+000
          4.413636270000e-001 6.322598450000e-001 0.000000000000e+000
          0.000000000000e+000 3.322666670000e-001 0.000000000000e+000
          4.030000000000e-002 3.241083040000e-001 0.000000000000e+000
          4.880000000000e-002 3.732204480000e-001 0.000000000000e+000
          4.096990520000e-001 5.970059090000e-001 0.000000000000e+000
          4.359622120000e-001 5.348093080000e-001 0.000000000000e+000
          8.634709500000e-002 1.861646220000e-001 0.000000000000e+000
          3.820000000000e-002 1.828048070000e-001 0.000000000000e+000
          1.912784940000e-001 1.603665230000e-001 0.000000000000e+000
          4.750000000000e-001 4.036036940000e-001 0.000000000000e+000
          4.642303300000e-001 4.105791900000e-001 0.000000000000e+000
          4.598121640000e-001 3.927740700000e-001 0.000000000000e+000
          2.401182360000e-001 6.738008570000e-001 0.000000000000e+000
          4.389592840000e-001 6.755823070000e-001 0.000000000000e+000
          4.750000000000e-001 3.296588890000e-001 0.000000000000e+000
          4.476987140000e-001 5.239335440000e-001 0.000000000000e+000
          0.000000000000e+000 3.797333330000e-001 0.000000000000e+000
          4.375000000000e-001 7.120000000000e-001 0.000000000000e+000
          4.475000000000e-001 7.120000000000e-001 0.000000000000e+000
          3.486106110000e-001 2.026073050000e-001 0.000000000000e+000
          3.165227960000e-001 2.081622480000e-001 0.000000000000e+000
          3.392437750000e-001 1.760088600000e-001 0.000000000000e+000
          3.790988860000e-001 3.453262370000e-001 0.000000000000e+000
          3.655035420000e-001 3.255507720000e-001 0.000000000000e+000
          3.843657540000e-001 3.249187520000e-001 0.000000000000e+000
          3.620975330000e-001 3.560346370000e-001 0.000000000000e+000
          3.512627780000e-001 3.391440580000e-001 0.000000000000e+000
          4.499617050000e-001 5.015835640000e-001 0.000000000000e+000
          4.342350580000e-001 5.014905690000e-001 0.000000000000e+000
          4.442913760000e-001 4.878780550000e-001 0.000000000000e+000
          4.428459580000e-001 5.878250430000e-001 0.000000000000e+000
          4.394391230000e-001 6.029122440000e-001 0.000000000000e+000
          4.750000000000e-001 3.000000000000e-001 0.000000000000e+000
          4.621409500000e-001 2.894091980000e-001 0.000000000000e+000
          2.375000000000e-001 0.000000000000e+000 0.000000000000e+000
          2.850000000000e-001 0.000000000000e+000 0.000000000000e+000
          3.328020250000e-001 1.169160730000e-001 0.000000000000e+000
          2.920212520000e-001 1.188378830000e-001 0.000000000000e+000
          2.291558360000e-001 5.885959210000e-001 0.000000000000e+000
          2.136428270000e-001 5.623651400000e-001 0.000000000000e+000
          2.442775890000e-001 5.609000500000e-001 0.000000000000e+000
          4.064206280000e-001 3.047299530000e-001 0.000000000000e+000
          4.182522270000e-001 3.108563120000e-001 0.000000000000e+000
          4.038465520000e-001 6.986003590000e-001 0.000000000000e+000
          4.028638560000e-001 6.886943560000e-001 0.000000000000e+000
          4.152648770000e-001 6.939116710000e-001 0.000000000000e+000
          3.503991620000e-001 3.921412100000e-001 0.000000000000e+000
          4.163989710000e-001 4.975390480000e-001 0.000000000000e+000
          4.089959850000e-001 4.792894720000e-001 0.000000000000e+000
          4.297013580000e-001 4.845435160000e-001 0.000000000000e+000
          1.264745580000e-001 6.127624150000e-001 0.000000000000e+000
          3.453115380000e-001 3.078956290000e-001 0.000000000000e+000
          3.197761870000e-001 5.295124480000e-001 0.000000000000e+000
          3.558901070000e-001 5.414409190000e-001 0.000000000000e+000
[...]
      <PointData Scalars="LIQUID_PRESSURE">
        <DataArray type="Float64" Name="LIQUID_PRESSURE" format="ascii">
          1.000004095602e+006 1.000003867078e+006 1.000003798054e+006 1.000004154880e+006 1.000001928894e+006 1.000002048169e+006 1.000001898715e+006 1.000002111285e+006 1.000001995340e+006 1.000002031114e+006 1.000000993053e+006 1.000000983526e+006 1.000001166420e+006 1.000002203362e+006 1.000002040530e+006 1.000001070353e+006 1.000003005863e+006 1.000002932420e+006 1.000002866306e+006 1.000012816881e+006 1.000002723137e+006 1.000002963622e+006 1.000002690330e+006 1.000002595205e+006 1.000002634483e+006 1.000002505568e+006 1.000003094476e+006 1.000002044569e+006 1.000002111867e+006 1.000002003294e+006 1.000002055884e+006 1.000001932241e+006 1.000001828664e+006 1.000001793046e+006 1.000001674627e+006 1.000001557064e+006 1.000001587707e+006 1.000004325860e+006 1.000004372544e+006 1.000004282123e+006 1.000003580457e+006 1.000003390829e+006 1.000003404357e+006 1.000000937508e+006 1.000001014920e+006 1.000002467451e+006 1.000001615571e+006 1.000001494312e+006 1.000011402791e+006 1.000001669954e+006 1.000001636799e+006 1.000001789564e+006 1.000003528023e+006 1.000003465682e+006 1.000003554808e+006 1.000002078620e+006 1.000001952585e+006 1.000002133074e+006 1.000003642206e+006 1.000000754940e+006 1.000000234263e+006 1.000000830192e+006 1.000002843756e+006 1.000002700146e+006 1.000002904290e+006 1.000000947222e+006 1.000000837898e+006 1.000000456966e+006 1.000000283364e+006 1.000000463041e+006 1.000002343499e+006 1.000002472865e+006 1.000002487332e+006 1.000003627275e+006 1.000003567336e+006 1.000003543598e+006 1.000003977127e+006 1.000003835795e+006 1.000003820427e+006 1.000004396869e+006 1.000004515363e+006 1.000004516390e+006 1.000002313644e+006 1.000003075217e+006 1.000001167349e+006 1.000001324413e+006 1.000003513951e+006 1.000003560513e+006 1.000003267123e+006 1.000001701956e+006 1.000002143316e+006 1.000004415710e+006 1.000004461340e+006 1.000004456168e+006 1.000002962518e+006 1.000002920422e+006 1.000003028182e+006 1.000002806477e+006 1.000000852661e+006 1.000003403232e+006 1.000002210100e+006 1.000003231797e+006 1.000000000000e+006 1.000000000000e+006 1.000004134933e+006 1.000004114990e+006 1.000004294795e+006 1.000003320200e+006 1.000003438386e+006 1.000003437868e+006 1.000003261712e+006 1.000003363294e+006 1.000002354491e+006 1.000002358155e+006 1.000002442842e+006 1.000001748982e+006 1.000001613809e+006 1.000003585561e+006 1.000003636221e+006 9.999763893645e+005 9.999755166185e+005 1.000004882600e+006 1.000005106334e+006 1.000001990948e+006 1.000002134117e+006 1.000002120566e+006 1.000003550649e+006 1.000003514248e+006 1.000001211854e+006 1.000000125493e+006 9.999998269510e+005 1.000003052118e+006 1.000002387852e+006 1.000002504738e+006 1.000002466640e+006 1.000001902421e+006 1.000003545732e+006 1.000002237429e+006 1.000002134848e+006 1.000002189769e+006 1.000002351903e+006 1.000002292140e+006 1.000002411932e+006 9.999811269815e+005 1.000006750343e+006 1.000017925559e+006 1.000002807177e+006 1.000002708416e+006 1.000002715680e+006 1.000001675335e+006 1.000001606653e+006 1.000001401404e+006 1.000002253859e+006 1.000003026147e+006 1.000003098926e+006 1.000002983725e+006 1.000001744170e+006 1.000001983702e+006 1.000002155835e+006 1.000002564390e+006 1.000004694538e+006 1.000005367437e+006 1.000004637518e+006 1.000000865642e+006 1.000001158303e+006 1.000001123427e+006 1.000001109592e+006 1.000001229997e+006 1.000001578517e+006 1.000001452625e+006 1.000002706618e+006 1.000002793964e+006 1.000002829038e+006 9.999926588378e+005 1.000002605626e+006 1.000002760191e+006 1.000003189717e+006 1.000002372719e+006 1.000002276083e+006 1.000003661056e+006 1.000003279375e+006 1.000003057622e+006 1.000002381635e+006 1.000002478440e+006 1.000002341400e+006 1.000001953053e+006 1.000000286245e+006 1.000003683693e+006 1.000001312815e+006 1.000003802378e+006 9.999999466800e+005 1.000002686431e+006 1.000002864899e+006 1.000002591700e+006 1.000004507402e+006 1.000004391313e+006 1.000002932376e+006 1.000002821618e+006 1.000002522154e+006 1.000002543694e+006 1.000011808225e+006 1.000001744544e+006 1.000004296050e+006 1.000003711176e+006 1.000003714968e+006 1.000003517796e+006 1.000003438825e+006 1.000003483303e+006 9.999606265148e+005 1.000000749801e+006 1.000003909695e+006 1.000002736228e+006 1.000003290212e+006 1.000003273248e+006 1.000003366384e+006 1.000001654888e+006 1.000001503948e+006 1.000001495385e+006 1.000002626848e+006 1.000003529763e+006 1.000003055092e+006 1.000003293356e+006 1.000001868951e+006 1.000012865035e+006 1.000002644849e+006 1.000003860116e+006 1.000003779898e+006 1.000003714176e+006 1.000003693407e+006 1.000008873304e+006 1.000002661868e+006 1.000002496442e+006 1.000002394991e+006 1.000003933674e+006 1.000003623519e+006 1.000001476839e+006 1.000003608502e+006 1.000000705416e+006 1.000001392590e+006 9.999962910517e+005 1.000001003608e+006 1.000003069825e+006 1.000003194045e+006 1.000000538644e+006 1.000002502726e+006 1.000005087203e+006 1.000002254354e+006 1.000004212505e+006 1.000001407658e+006 1.000001726846e+006 1.000001017527e+006 1.000000703237e+006 1.000004224369e+006 1.000002839354e+006 1.000004383667e+006 1.000003509492e+006 1.000003413246e+006 1.000003370442e+006 1.000003218811e+006 1.000004327238e+006 1.000004350434e+006 1.000002887570e+006 1.000003416321e+006 1.000004088291e+006 1.000003997878e+006 1.000003933067e+006 1.000004382214e+006 1.000004198344e+006 1.000003169014e+006 1.000059104826e+006 1.000053126158e+006 1.000003982071e+006 1.000002089681e+006 1.000002416779e+006 1.000005075527e+006 1.000001602514e+006 1.000005143002e+006 1.000001523925e+006 1.000003195444e+006 1.000002241272e+006 1.000002244348e+006 1.000001619336e+006 1.000003288632e+006 1.000003244134e+006 1.000002573972e+006 1.000002633680e+006 1.000002752060e+006 1.000003909055e+006 1.000003175534e+006 9.999743708842e+005 1.000012286478e+006 1.000002988425e+006 1.000004000441e+006 1.000004232427e+006 1.000004149936e+006 1.000001976938e+006 1.000001925868e+006 1.000003136332e+006 1.000001612422e+006 1.000003391137e+006 1.000003308110e+006 1.000002291995e+006 1.000002955547e+006 1.000001891148e+006 1.000001913706e+006 1.000001459017e+006 1.000004440796e+006 1.000003815298e+006 1.000003987857e+006 1.000003814414e+006 1.000001526524e+006 1.000001911271e+006 1.000002449139e+006 1.000002040861e+006 1.000001704453e+006 1.000001592389e+006 1.000002218795e+006 1.000002084820e+006 1.000002058794e+006 1.000002102676e+006 1.000003061550e+006 1.000004853480e+006 1.000001396244e+006 1.000001372917e+006 1.000003628061e+006 1.000024698416e+006 9.999936570125e+005 1.000034640286e+006 1.000001838935e+006 1.000004802520e+006 1.000003155651e+006 1.000001567135e+006 1.000001668470e+006 1.000002793711e+006 1.000002005990e+006 1.000002169068e+006 1.000002406082e+006 1.000002475654e+006 1.000002876612e+006 1.000001958158e+006 1.000003170945e+006 1.000002921079e+006 1.000002931705e+006 1.000002293305e+006 1.000003242360e+006 1.000002837423e+006 1.000002593145e+006 1.000002254634e+006 1.000003924964e+006 1.000001335415e+006 1.000002406618e+006 1.000001390122e+006 1.000001381004e+006 1.000001284513e+006 1.000004574657e+006 1.000003553000e+006 1.000003680983e+006 1.000001578492e+006 1.000003448979e+006 1.000001457650e+006 1.000001056915e+006 1.000001485193e+006 1.000004399447e+006 1.000004760388e+006 9.999973480391e+005 1.000002309424e+006 1.000002451878e+006 1.000002156372e+006 1.000007470702e+006 1.000002256582e+006 1.000002714152e+006 1.000002866947e+006 1.000003531144e+006 1.000002425050e+006 1.000003388337e+006 1.000001788021e+006 1.000001685616e+006 1.000001792976e+006 1.000002193859e+006 1.000002725292e+006 1.000001255644e+006 1.000003075513e+006 1.000003351881e+006 1.000004803454e+006 1.000002462168e+006 1.000002157160e+006 1.000002181931e+006 1.000013546724e+006 1.000003044124e+006 9.999994691509e+005 1.000002922188e+006 1.000008385736e+006 1.000002160057e+006 1.000003338469e+006 1.000001449379e+006 1.000002159287e+006 1.000002295130e+006 1.000001505792e+006 1.000001382752e+006 1.000001450077e+006 1.000002617893e+006 1.000005062096e+006 1.000002589750e+006 1.000002139064e+006 1.000004407409e+006 1.000001548748e+006 1.000002003841e+006 1.000004029521e+006 1.000002017638e+006 1.000003145538e+006 1.000013829610e+006 1.000003927939e+006 1.000003845597e+006 1.000001847581e+006 1.000002229789e+006 1.000001809652e+006 1.000003225260e+006 1.000003179020e+006 1.000001888979e+006 1.000000907653e+006 1.000002918498e+006 1.000001241227e+006 1.000004195767e+006 9.999934842788e+005 1.000002415604e+006 1.000003706283e+006 1.000003799218e+006 1.000001227817e+006 1.000003477994e+006 1.000002938886e+006 1.000050614245e+006 1.000044692979e+006 1.000003468081e+006 1.000003200015e+006 1.000001191612e+006 1.000046212880e+006 9.999915511970e+005 1.000003669844e+006 1.000003466994e+006 1.000003517011e+006 1.000005007334e+006 1.000003548606e+006 1.000004126715e+006 1.000002753048e+006 1.000002650717e+006 1.000002439749e+006 9.999930478818e+005 1.000003409804e+006 9.999791546263e+005 1.000004179350e+006 1.000001899056e+006 1.000001574730e+006 1.000001339421e+006 1.000001741656e+006 1.000001797376e+006 1.000014157847e+006 1.000003031552e+006 1.000002302669e+006 1.000004087217e+006 1.000001696268e+006 1.000002897062e+006 9.999683850236e+005 1.000003236358e+006 1.000002254398e+006 1.000002791855e+006 1.000001104872e+006 1.000001210719e+006 1.000003673914e+006 1.000004320749e+006 9.999956071153e+005 9.999995208856e+005 1.000000370343e+006 1.000004059261e+006 1.000004194710e+006 1.000003971294e+006 1.000003725708e+006 9.999942253186e+005 1.000003742650e+006 1.000003732161e+006 1.000002606621e+006 1.000002606915e+006 1.000004497953e+006 1.000002364208e+006 1.000003986782e+006 1.000002590654e+006 1.000003800808e+006 1.000001852667e+006 1.000004425740e+006 1.000001215066e+006 1.000001670779e+006 1.000004046598e+006 1.000061819383e+006 1.000002620195e+006 1.000059982457e+006 1.000003408890e+006 1.000053642738e+006 1.000001308777e+006 1.000041096681e+006 1.000003364379e+006 1.000001155905e+006 1.000001860703e+006 9.999762377737e+005 1.000007958219e+006 1.000014411250e+006 1.000004493270e+006 1.000002734100e+006 1.000003179000e+006 1.000001655529e+006 1.000001238075e+006 1.000060598158e+006 1.000049413234e+006 9.999972602307e+005 1.000002383409e+006 1.000002256336e+006 1.000001743869e+006 9.999941178318e+005 1.000003218240e+006 1.000063682440e+006 1.000068037573e+006 1.000017995715e+006 1.000004029801e+006 1.000007769358e+006 1.000060916228e+006 1.000010200278e+006 1.000001331194e+006 1.000004122854e+006 1.000001778805e+006 1.000007859186e+006 1.000002564887e+006 1.000002549902e+006 1.000005402337e+006 9.999669588912e+005 1.000003032497e+006 1.000062513262e+006 1.000003493370e+006 1.000065614192e+006 1.000002856978e+006 9.999937834400e+005 1.000001391335e+006 1.000001362696e+006 1.000066880122e+006 1.000004283511e+006 1.000001826101e+006 1.000001712512e+006 1.000002500457e+006 1.000064442883e+006 1.000002651411e+006 1.000001539107e+006 1.000003071259e+006 1.000003197598e+006 1.000002918476e+006 1.000000985770e+006 1.000000850645e+006 9.999963562525e+005 1.000003252403e+006 1.000003299749e+006 9.999803651663e+005 1.000008147319e+006 9.999661411674e+005 1.000003251350e+006 1.000004066164e+006 1.000014977121e+006 1.000001673494e+006 9.999992616471e+005 9.999996421563e+005 1.000002796892e+006 1.000003054706e+006 1.000047317574e+006 1.000025388696e+006 1.000004201575e+006 1.000004324779e+006 1.000000846556e+006 1.000002450370e+006 1.000001908606e+006 1.000004097438e+006 1.000001625966e+006 1.000005451033e+006 1.000003147065e+006 1.000003123583e+006 1.000001809940e+006 1.000001233853e+006 1.000002535279e+006 1.000002642274e+006 1.000003868357e+006 1.000002304366e+006 1.000003676127e+006 1.000004675211e+006 1.000001779001e+006 1.000003063122e+006 1.000003938066e+006 1.000003698227e+006 1.000003559765e+006 1.000004182164e+006 1.000003714432e+006 1.000002713159e+006 1.000003750453e+006 1.000003616613e+006 1.000003801498e+006 1.000001560573e+006 1.000001915348e+006 1.000003852283e+006 
        </DataArray>
        <DataArray type="Float64" Name="MEAN_PRESSURE" format="ascii">