<?xml version="1.0"?>
<VTKFile type="UnstructuredGrid" version="0.1" byte_order="LittleEndian">
  <UnstructuredGrid>
    <Piece NumberOfPoints="601" NumberOfCells="1114">
      <Points>
        <DataArray type="Float64" NumberOfComponents="3" format="ascii">
          9.510000000000e-002 2.350697990000e-001 0.000000000000e+000
          1.063631230000e-001 2.714774400000e-001 0.000000000000e+000
          6.050000000000e-002 2.846704020000e-001 0.000000000000e+000
          5.720000000000e-002 2.264127830000e-001 0.000000000000e+000
          3.607917390000e-001 5.721080920000e-001 0.000000000000e+000
          3.768558020000e-001 5.525748860000e-001 0.000000000000e+000
          3.789778370000e-001 5.742477180000e-001 0.000000000000e+000
          3.136481190000e-001 5.509609410000e-001 0.000000000000e+000
          3.128188330000e-001 5.700416560000e-001 0.000000000000e+000
          2.881707800000e-001 5.687733920000e-001 0.000000000000e+000
          4.429907380000e-001 6.611719170000e-001 0.000000000000e+000
          4.320814310000e-001 6.642626630000e-001 0.000000000000e+000
          4.324781590000e-001 6.492754290000e-001 0.000000000000e+000
          2.969991220000e-001 5.382558640000e-001 0.000000000000e+000
          3.554110690000e-001 5.560310200000e-001 0.000000000000e+000
          4.214534510000e-001 6.601358340000e-001 0.000000000000e+000
          3.005429170000e-001 4.030809660000e-001 0.000000000000e+000
          3.340207110000e-001 4.132574770000e-001 0.000000000000e+000
          3.087980550000e-001 4.260963220000e-001 0.000000000000e+000
          3.053610030000e-001 3.660000000000e-002 0.000000000000e+000
          3.226354220000e-001 7.560000000000e-002 0.000000000000e+000
          2.746654270000e-001 8.220000000000e-002 0.000000000000e+000
          3.714377890000e-001 4.511813880000e-001 0.000000000000e+000
          3.808127360000e-001 4.661551930000e-001 0.000000000000e+000
          3.485926620000e-001 4.618266300000e-001 0.000000000000e+000
          3.675564050000e-001 4.815381760000e-001 0.000000000000e+000
          3.187177420000e-001 3.868419500000e-001 0.000000000000e+000
          4.410873470000e-001 5.496885300000e-001 0.000000000000e+000
          4.522404520000e-001 5.386010270000e-001 0.000000000000e+000
          4.593241840000e-001 5.538167910000e-001 0.000000000000e+000
          4.014960550000e-001 5.499755270000e-001 0.000000000000e+000
          3.980412370000e-001 5.681797670000e-001 0.000000000000e+000
          4.118653570000e-001 5.818986230000e-001 0.000000000000e+000
          4.290214690000e-001 5.850384460000e-001 0.000000000000e+000
          4.227055460000e-001 5.985109270000e-001 0.000000000000e+000
          4.262176060000e-001 6.109134930000e-001 0.000000000000e+000
          4.083256760000e-001 6.108101250000e-001 0.000000000000e+000
          4.074199840000e-001 1.678065540000e-001 0.000000000000e+000
          4.338525000000e-001 1.367993340000e-001 0.000000000000e+000
          4.419993050000e-001 1.735765240000e-001 0.000000000000e+000
          2.938198300000e-001 3.050000000000e-001 0.000000000000e+000
          3.040856940000e-001 3.370911280000e-001 0.000000000000e+000
          2.728783300000e-001 3.368892400000e-001 0.000000000000e+000
          4.245255210000e-001 6.751478260000e-001 0.000000000000e+000
          4.115146200000e-001 6.706797750000e-001 0.000000000000e+000
          2.172506940000e-001 6.543239900000e-001 0.000000000000e+000
          2.369118240000e-001 6.316770480000e-001 0.000000000000e+000
          2.468783150000e-001 6.519368170000e-001 0.000000000000e+000
          2.564526880000e-001 4.120000000000e-002 0.000000000000e+000
          3.448377420000e-001 6.129073000000e-001 0.000000000000e+000
          3.251379980000e-001 6.268927700000e-001 0.000000000000e+000
          3.273312140000e-001 5.994122080000e-001 0.000000000000e+000
          4.750000000000e-001 3.100000000000e-001 0.000000000000e+000
          4.622391060000e-001 3.191759170000e-001 0.000000000000e+000
          4.632789630000e-001 3.041741210000e-001 0.000000000000e+000
          1.686277520000e-001 5.768153050000e-001 0.000000000000e+000
          1.600733810000e-001 6.057946050000e-001 0.000000000000e+000
          1.336495140000e-001 5.702660460000e-001 0.000000000000e+000
          2.648985480000e-001 2.964243830000e-001 0.000000000000e+000
          4.750000000000e-001 6.810086020000e-001 0.000000000000e+000
          4.639688660000e-001 6.874614690000e-001 0.000000000000e+000
          4.675279960000e-001 6.755881310000e-001 0.000000000000e+000
          1.561569900000e-001 4.415648520000e-001 0.000000000000e+000
          1.171065000000e-001 4.689182860000e-001 0.000000000000e+000
          1.132137760000e-001 4.334105240000e-001 0.000000000000e+000
          4.561931150000e-001 6.630934020000e-001 0.000000000000e+000
          4.518916820000e-001 6.720976590000e-001 0.000000000000e+000
          4.522697350000e-001 6.939175990000e-001 0.000000000000e+000
          4.419733660000e-001 7.008709150000e-001 0.000000000000e+000
          4.414427990000e-001 6.880619320000e-001 0.000000000000e+000
          3.033683560000e-001 5.140865850000e-001 0.000000000000e+000
          2.832124480000e-001 4.946651860000e-001 0.000000000000e+000
          3.072265520000e-001 4.897188920000e-001 0.000000000000e+000
          4.221152260000e-001 2.910297120000e-001 0.000000000000e+000
          4.412966690000e-001 3.014644090000e-001 0.000000000000e+000
          4.299153840000e-001 3.056276890000e-001 0.000000000000e+000
          4.222588150000e-001 2.283775240000e-001 0.000000000000e+000
          4.357605810000e-001 2.536862780000e-001 0.000000000000e+000
          4.167418710000e-001 2.567880820000e-001 0.000000000000e+000
          1.638570440000e-001 1.794837980000e-001 0.000000000000e+000
          1.278151710000e-001 1.656272250000e-001 0.000000000000e+000
          1.617419920000e-001 1.377643790000e-001 0.000000000000e+000
          2.790434020000e-001 5.221415640000e-001 0.000000000000e+000
          1.305952380000e-001 4.029576320000e-001 0.000000000000e+000
          4.451347220000e-001 6.463338270000e-001 0.000000000000e+000
          4.413636270000e-001 6.322598450000e-001 0.000000000000e+000
          0.000000000000e+000 3.322666670000e-001 0.000000000000e+000
          4.030000000000e-002 3.241083040000e-001 0.000000000000e+000
          4.880000000000e-002 3.732204480000e-001 0.000000000000e+000
          4.096990520000e-001 5.970059090000e-001 0.000000000000e+000
          4.359622120000e-001 5.348093080000e-001 0.000000000000e+000
          8.634709500000e-002 1.861646220000e-001 0.000000000000e+000
          3.820000000000e-002 1.828048070000e-001 0.000000000000e+000
          1.912784940000e-001 1.603665230000e-001 0.000000000000e+000
          4.750000000000e-001 4.036036940000e-001 0.000000000000e+000
          4.642303300000e-001 4.105791900000e-001 0.000000000000e+000
          4.598121640000e-001 3.927740700000e-001 0.000000000000e+000
          2.401182360000e-001 6.738008570000e-001 0.000000000000e+000
          4.389592840000e-001 6.755823070000e-001 0.000000000000e+000
          4.750000000000e-001 3.296588890000e-001 0.000000000000e+000
          4.476987140000e-001 5.239335440000e-001 0.000000000000e+000
          0.000000000000e+000 3.797333330000e-001 0.000000000000e+000
          4.375000000000e-001 7.120000000000e-001 0.000000000000e+000
          4.475000000000e-001 7.120000000000e-001 0.000000000000e+000
          3.486106110000e-001 2.026073050000e-001 0.000000000000e+000
          3.165227960000e-001 2.081622480000e-001 0.000000000000e+000
          3.392437750000e-001 1.760088600000e-001 0.000000000000e+000
          3.790988860000e-001 3.453262370000e-001 0.000000000000e+000
          3.655035420000e-001 3.255507720000e-001 0.000000000000e+000
          3.843657540000e-001 3.249187520000e-001 0.000000000000e+000
          3.620975330000e-001 3.560346370000e-001 0.000000000000e+000
          3.512627780000e-001 3.391440580000e-001 0.000000000000e+000
          4.499617050000e-001 5.015835640000e-001 0.000000000000e+000
          4.342350580000e-001 5.014905690000e-001 0.000000000000e+000
          4.442913760000e-001 4.878780550000e-001 0.000000000000e+000
          4.428459580000e-001 5.878250430000e-001 0.000000000000e+000
          4.394391230000e-001 6.029122440000e-001 0.000000000000e+000
          4.750000000000e-001 3.000000000000e-001 0.000000000000e+000
          4.621409500000e-001 2.894091980000e-001 0.000000000000e+000
          2.375000000000e-001 0.000000000000e+000 0.000000000000e+000
          2.850000000000e-001 0.000000000000e+000 0.000000000000e+000
          3.328020250000e-001 1.169160730000e-001 0.000000000000e+000
          2.920212520000e-001 1.188378830000e-001 0.000000000000e+000
          2.291558360000e-001 5.885959210000e-001 0.000000000000e+000
          2.136428270000e-001 5.623651400000e-001 0.000000000000e+000
          2.442775890000e-001 5.609000500000e-001 0.000000000000e+000
          4.064206280000e-001 3.047299530000e-001 0.000000000000e+000
          4.182522270000e-001 3.108563120000e-001 0.000000000000e+000
          4.038465520000e-001 6.986003590000e-001 0.000000000000e+000
          4.028638560000e-001 6.886943560000e-001 0.000000000000e+000
          4.152648770000e-001 6.939116710000e-001 0.000000000000e+000
          3.503991620000e-001 3.921412100000e-001 0.000000000000e+000
          4.163989710000e-001 4.975390480000e-001 0.000000000000e+000
          4.089959850000e-001 4.792894720000e-001 0.000000000000e+000
          4.297013580000e-001 4.845435160000e-001 0.000000000000e+000
          1.264745580000e-001 6.127624150000e-001 0.000000000000e+000
          3.453115380000e-001 3.078956290000e-001 0.000000000000e+000
          3.197761870000e-001 5.295124480000e-001 0.000000000000e+000
          3.558901070000e-001 5.414409190000e-001 0.000000000000e+000
[...]
      <PointData Scalars="LIQUID_PRESSURE">
        <DataArray type="Float64" Name="LIQUID_PRESSURE" format="ascii">
          1.000008245328e+006 1.000007796856e+006 1.000007647108e+006 1.000008360158e+006 1.000003898306e+006 1.000004132946e+006 1.000003834028e+006 1.000004261463e+006 1.000004028037e+006 1.000004092303e+006 1.000002108256e+006 1.000002079157e+006 1.000002406471e+006 1.000004445485e+006 1.000004121382e+006 1.000002244231e+006 1.000006093173e+006 1.000005945458e+006 1.000005806246e+006 1.000022678436e+006 1.000007319195e+006 1.000007288712e+006 1.000005448299e+006 1.000005252428e+006 1.000005332286e+006 1.000005067695e+006 1.000006278842e+006 1.000004106799e+006 1.000004250873e+006 1.000004029981e+006 1.000004138759e+006 1.000003890747e+006 1.000003674689e+006 1.000003599616e+006 1.000003382935e+006 1.000003161474e+006 1.000003220320e+006 1.000008831040e+006 1.000009147405e+006 1.000008761368e+006 1.000007284071e+006 1.000006891234e+006 1.000006912602e+006 1.000001761840e+006 1.000002065066e+006 1.000004087278e+006 1.000003408566e+006 1.000003547683e+006 1.000021121983e+006 1.000003403055e+006 1.000003281475e+006 1.000003629378e+006 1.000007179590e+006 1.000007057339e+006 1.000007241836e+006 1.000004172647e+006 1.000003854308e+006 1.000004296640e+006 1.000007404735e+006 1.000001355329e+006 1.000002040291e+006 1.000001511802e+006 1.000005738816e+006 1.000005443441e+006 1.000005858809e+006 1.000002015701e+006 1.000001752917e+006 1.000004278017e+006 1.000004079217e+006 1.000001199462e+006 1.000004731977e+006 1.000004994104e+006 1.000005026834e+006 1.000007397161e+006 1.000007270241e+006 1.000007221292e+006 1.000008135201e+006 1.000007836753e+006 1.000007804098e+006 1.000008887091e+006 1.000009070149e+006 1.000009371385e+006 1.000004667131e+006 1.000006208165e+006 1.000002434376e+006 1.000002730184e+006 1.000007079643e+006 1.000007174442e+006 1.000006588252e+006 1.000003438351e+006 1.000004314205e+006 1.000008849856e+006 1.000008897110e+006 1.000009056936e+006 1.000006013389e+006 1.000005926127e+006 1.000006149473e+006 1.000002004875e+006 1.000001657701e+006 1.000006927982e+006 1.000004454400e+006 1.000006515896e+006 1.000000000000e+006 1.000000000000e+006 1.000008468281e+006 1.000008429539e+006 1.000008786412e+006 1.000006753880e+006 1.000006999251e+006 1.000006999606e+006 1.000006630741e+006 1.000006841111e+006 1.000004753973e+006 1.000004761644e+006 1.000004937032e+006 1.000003524131e+006 1.000003271411e+006 1.000007299910e+006 1.000007414604e+006 9.999560097172e+005 9.999546146758e+005 1.000009737173e+006 1.000009976725e+006 1.000003974578e+006 1.000004284365e+006 1.000004260412e+006 1.000007236381e+006 1.000007160184e+006 1.000015254431e+006 1.000002756622e+006 1.000006797266e+006 1.000006194707e+006 1.000004823675e+006 1.000005065603e+006 1.000004986449e+006 1.000003685649e+006 1.000007221299e+006 1.000004517870e+006 1.000004311187e+006 1.000004421361e+006 1.000004748747e+006 1.000004624910e+006 1.000004872995e+006 9.999644203448e+005 1.000014358370e+006 1.000029970262e+006 1.000005691396e+006 1.000005486937e+006 1.000005501888e+006 1.000001930732e+006 1.000003368186e+006 1.000003116688e+006 1.000004524533e+006 1.000006143612e+006 1.000006295455e+006 1.000006056640e+006 1.000003530232e+006 1.000003992753e+006 1.000004340496e+006 1.000005188804e+006 1.000009424835e+006 1.000010212399e+006 1.000009404223e+006 1.000001559027e+006 1.000002396087e+006 1.000002375551e+006 1.000002354726e+006 1.000002575358e+006 1.000003210234e+006 1.000002973959e+006 1.000005482622e+006 1.000005662277e+006 1.000005735497e+006 9.999930422010e+005 1.000005271020e+006 1.000005589957e+006 1.000006471937e+006 1.000004767922e+006 1.000004587277e+006 1.000007467561e+006 1.000006625425e+006 1.000006177301e+006 1.000004812989e+006 1.000005011706e+006 1.000004729361e+006 1.000003915901e+006 1.000004911627e+006 1.000007515208e+006 1.000002692325e+006 1.000007652175e+006 1.000004527189e+006 1.000005411647e+006 1.000005780090e+006 1.000005212146e+006 1.000009412500e+006 1.000008965269e+006 1.000005950818e+006 1.000005721403e+006 1.000005101257e+006 1.000005145894e+006 1.000030059222e+006 1.000003544653e+006 1.000008766664e+006 1.000007555210e+006 1.000007571667e+006 1.000007165699e+006 1.000007001559e+006 1.000007094602e+006 9.999314912121e+005 1.000001493993e+006 1.000007992621e+006 1.000005542277e+006 1.000006692803e+006 1.000006657784e+006 1.000006850870e+006 1.000003358247e+006 1.000003062135e+006 1.000003050657e+006 1.000005318022e+006 1.000007183450e+006 1.000006163073e+006 1.000006647194e+006 1.000003702798e+006 1.000022910323e+006 1.000005331435e+006 1.000007881999e+006 1.000007715952e+006 1.000007575078e+006 1.000015112732e+006 1.000019242323e+006 1.000005362563e+006 1.000005019972e+006 1.000004833179e+006 1.000008040024e+006 1.000007389118e+006 1.000003012775e+006 1.000007355962e+006 1.000001529695e+006 1.000000688133e+006 1.000005961668e+006 1.000000527440e+006 1.000006235850e+006 1.000006475420e+006 1.000001757640e+006 1.000005061328e+006 1.000009852093e+006 1.000004546951e+006 1.000008651512e+006 1.000002984740e+006 1.000003493699e+006 1.000002167314e+006 1.000001392929e+006 1.000008483724e+006 1.000005754893e+006 1.000008974427e+006 1.000007122450e+006 1.000006910620e+006 1.000006830427e+006 1.000006515645e+006 1.000008921612e+006 1.000009106677e+006 1.000005857780e+006 1.000006948676e+006 1.000008373684e+006 1.000008178807e+006 1.000008042232e+006 1.000008965666e+006 1.000008615141e+006 1.000007455700e+006 1.000092060851e+006 1.000087127217e+006 1.000008003866e+006 1.000004186154e+006 1.000007332291e+006 1.000009857288e+006 1.000003010785e+006 1.000009989229e+006 1.000003148763e+006 1.000006496381e+006 1.000004354962e+006 1.000004464690e+006 1.000003644207e+006 1.000006684276e+006 1.000006588656e+006 1.000005195634e+006 1.000005314766e+006 1.000005562799e+006 1.000007989831e+006 1.000007773719e+006 9.999530926651e+005 1.000021347162e+006 1.000006066787e+006 1.000008083799e+006 1.000008547771e+006 1.000008409204e+006 1.000003963345e+006 1.000003839815e+006 1.000006372433e+006 1.000003274230e+006 1.000006902777e+006 1.000006730296e+006 1.000004617606e+006 1.000005960515e+006 1.000003812020e+006 1.000003867171e+006 1.000002968903e+006 1.000009209328e+006 1.000007766644e+006 1.000008137855e+006 1.000007776804e+006 1.000003214364e+006 1.000003197386e+006 1.000004941334e+006 1.000004207375e+006 1.000003447482e+006 1.000003238748e+006 1.000004472690e+006 1.000004190612e+006 1.000004145138e+006 1.000004234004e+006 1.000006218527e+006 1.000009581012e+006 1.000003002355e+006 1.000002777843e+006 1.000007396201e+006 1.000047688387e+006 9.999903792258e+005 1.000064529864e+006 1.000003710582e+006 1.000009430905e+006 1.000006411135e+006 1.000003713572e+006 1.000000724651e+006 1.000005643686e+006 1.000004014493e+006 1.000004351290e+006 1.000004862022e+006 1.000005004646e+006 1.000005834755e+006 1.000003942074e+006 1.000006439379e+006 1.000005926275e+006 1.000005946968e+006 1.000004627049e+006 1.000006557186e+006 1.000005721731e+006 1.000005248250e+006 1.000004533910e+006 1.000008013736e+006 1.000002761234e+006 1.000004867448e+006 1.000002810874e+006 1.000002814494e+006 1.000002619584e+006 1.000009306290e+006 1.000007240503e+006 1.000007509173e+006 1.000003217043e+006 1.000007023667e+006 1.000001994818e+006 1.000002228626e+006 1.000003002708e+006 1.000008950873e+006 1.000009648991e+006 1.000009899515e+006 1.000004643382e+006 1.000004936899e+006 1.000004349770e+006 1.000015852288e+006 1.000004556401e+006 1.000005489223e+006 1.000005803846e+006 1.000007193442e+006 1.000004886989e+006 1.000005451534e+006 1.000003683090e+006 1.000003414002e+006 1.000003626227e+006 1.000004306619e+006 1.000005515306e+006 1.000002620330e+006 1.000006202496e+006 1.000006821403e+006 1.000009690328e+006 1.000004959777e+006 1.000004346408e+006 1.000004396979e+006 1.000021668218e+006 1.000006179773e+006 9.999992630153e+005 1.000005913173e+006 1.000018372404e+006 1.000006706545e+006 1.000006770487e+006 1.000002953214e+006 1.000004350864e+006 1.000004632509e+006 1.000003078495e+006 1.000002851984e+006 1.000002974175e+006 1.000007218915e+006 1.000009739358e+006 1.000005241280e+006 1.000004319907e+006 1.000008818455e+006 1.000003210024e+006 1.000004013047e+006 1.000008240675e+006 1.000004075812e+006 1.000006392800e+006 1.000022655834e+006 1.000008032030e+006 1.000007857562e+006 1.000003545853e+006 1.000004499180e+006 1.000003662906e+006 1.000006558226e+006 1.000006462302e+006 1.000003798480e+006 1.000001961695e+006 1.000005901520e+006 1.000003652595e+006 1.000004268330e+006 9.999986296214e+005 1.000004882935e+006 1.000007563253e+006 1.000007758522e+006 1.000002563940e+006 1.000007014267e+006 1.000005960484e+006 1.000084289785e+006 1.000078115491e+006 1.000007063472e+006 1.000006482710e+006 1.000002640626e+006 1.000079935451e+006 9.999886204849e+005 1.000007418172e+006 1.000007011224e+006 1.000007100998e+006 1.000009916651e+006 1.000008387949e+006 1.000008455421e+006 1.000005579396e+006 1.000005367471e+006 1.000004329415e+006 9.999917795885e+005 1.000003872374e+006 9.999613549300e+005 1.000008571228e+006 1.000003839186e+006 1.000003193021e+006 1.000002829183e+006 1.000003520711e+006 1.000003625815e+006 1.000024158223e+006 1.000006142236e+006 1.000004646949e+006 1.000008366219e+006 1.000003440827e+006 1.000005852311e+006 9.999439923479e+005 1.000006528715e+006 1.000004546216e+006 1.000005659137e+006 1.000002327100e+006 1.000001680828e+006 1.000007410053e+006 1.000009034845e+006 1.000005108628e+006 1.000004339662e+006 1.000001223355e+006 1.000008246329e+006 1.000008554148e+006 1.000008086277e+006 1.000007604283e+006 9.999964151723e+005 1.000007639733e+006 1.000007617084e+006 1.000005266323e+006 1.000005270724e+006 1.000009078359e+006 1.000004776562e+006 1.000008154723e+006 1.000005222797e+006 1.000007762387e+006 1.000003734242e+006 1.000009106699e+006 1.000002126082e+006 1.000003381206e+006 1.000008278944e+006 1.000093563627e+006 1.000005304211e+006 1.000076887732e+006 1.000006940117e+006 1.000088048452e+006 1.000002668703e+006 1.000073383018e+006 1.000006846923e+006 1.000002450059e+006 1.000003731667e+006 9.999564153054e+005 1.000015829118e+006 1.000023620520e+006 1.000009376120e+006 1.000005517731e+006 1.000006457959e+006 1.000003345779e+006 1.000002529039e+006 1.000093431071e+006 1.000081848765e+006 1.000010321999e+006 1.000004816834e+006 1.000004557802e+006 1.000003388913e+006 1.000002903433e+006 1.000006541956e+006 1.000093291295e+006 1.000094248239e+006 1.000039973840e+006 1.000008124440e+006 1.000026432902e+006 1.000092318155e+006 1.000030997345e+006 1.000002757330e+006 1.000008424716e+006 1.000003602425e+006 1.000027813270e+006 1.000002025593e+006 1.000005158707e+006 1.000010281434e+006 9.999420715785e+005 1.000006131287e+006 1.000081424270e+006 1.000008835361e+006 1.000095974851e+006 1.000005794683e+006 9.999988724642e+005 1.000002848077e+006 1.000002782621e+006 1.000095115149e+006 1.000008712019e+006 1.000003691612e+006 1.000003417367e+006 1.000005056320e+006 1.000094993613e+006 1.000020002173e+006 1.000000582927e+006 1.000006220190e+006 1.000006500334e+006 1.000004838832e+006 1.000002116164e+006 1.000001793903e+006 9.999974926969e+005 1.000006614507e+006 1.000006712737e+006 9.999630918043e+005 1.000015573470e+006 9.999408268941e+005 1.000006611517e+006 1.000008322223e+006 1.000037342071e+006 1.000012081347e+006 1.000001997875e+006 1.000004290146e+006 1.000005669893e+006 1.000006182153e+006 1.000081163569e+006 1.000044826530e+006 1.000008594795e+006 1.000008782023e+006 1.000001765703e+006 1.000004952607e+006 1.000003842354e+006 1.000008229630e+006 1.000003302184e+006 1.000010250470e+006 1.000006395775e+006 1.000006347324e+006 1.000003659070e+006 1.000002526321e+006 1.000005107081e+006 1.000005349924e+006 1.000007860302e+006 1.000004655318e+006 1.000007498820e+006 1.000009514871e+006 1.000003585417e+006 1.000006221527e+006 1.000007983462e+006 1.000007510654e+006 1.000007216878e+006 1.000009198631e+006 1.000007497994e+006 1.000005496506e+006 1.000007605013e+006 1.000007321952e+006 1.000007693706e+006 1.000003612249e+006 1.000003852764e+006 1.000007780674e+006 
        </DataArray>
        <DataArray type="Float64" Name="MEAN_PRESSURE" format="ascii">