<?xml version="1.0"?>
<VTKFile type="UnstructuredGrid" version="0.1" byte_order="LittleEndian">
  <UnstructuredGrid>
    <Piece NumberOfPoints="601" NumberOfCells="1114">
      <Points>
        <DataArray type="Float64" NumberOfComponents="3" format="ascii">
          9.510000000000e-002 2.350697990000e-001 0.000000000000e+000
          1.063631230000e-001 2.714774400000e-001 0.000000000000e+000
          6.050000000000e-002 2.846704020000e-001 0.000000000000e+000
          5.720000000000e-002 2.264127830000e-001 0.000000000000e+000
          3.607917390000e-001 5.721080920000e-001 0.000000000000e+000
          3.768558020000e-001 5.525748860000e-001 0.000000000000e+000
          3.789778370000e-001 5.742477180000e-001 0.000000000000e+000
          3.136481190000e-001 5.509609410000e-001 0.000000000000e+000
          3.128188330000e-001 5.700416560000e-001 0.000000000000e+000
          2.881707800000e-001 5.687733920000e-001 0.000000000000e+000
          4.429907380000e-001 6.611719170000e-001 0.000000000000e+000
          4.320814310000e-001 6.642626630000e-001 0.000000000000e+000
          4.324781590000e-001 6.492754290000e-001 0.000000000000e+000
          2.969991220000e-001 5.382558640000e-001 0.000000000000e+000
          3.554110690000e-001 5.560310200000e-001 0.000000000000e+000
          4.214534510000e-001 6.601358340000e-001 0.000000000000e+000
          3.005429170000e-001 4.030809660000e-001 0.000000000000e+000
          3.340207110000e-001 4.132574770000e-001 0.000000000000e+000
          3.087980550000e-001 4.260963220000e-001 0.000000000000e+000
          3.053610030000e-001 3.660000000000e-002 0.000000000000e+000
          3.226354220000e-001 7.560000000000e-002 0.000000000000e+000
          2.746654270000e-001 8.220000000000e-002 0.000000000000e+000
          3.714377890000e-001 4.511813880000e-001 0.000000000000e+000
          3.808127360000e-001 4.661551930000e-001 0.000000000000e+000
          3.485926620000e-001 4.618266300000e-001 0.000000000000e+000
          3.675564050000e-001 4.815381760000e-001 0.000000000000e+000
          3.187177420000e-001 3.868419500000e-001 0.000000000000e+000
          4.410873470000e-001 5.496885300000e-001 0.000000000000e+000
          4.522404520000e-001 5.386010270000e-001 0.000000000000e+000
          4.593241840000e-001 5.538167910000e-001 0.000000000000e+000
          4.014960550000e-001 5.499755270000e-001 0.000000000000e+000
          3.980412370000e-001 5.681797670000e-001 0.000000000000e+000
          4.118653570000e-001 5.818986230000e-001 0.000000000000e+000
          4.290214690000e-001 5.850384460000e-001 0.000000000000e+000
          4.227055460000e-001 5.985109270000e-001 0.000000000000e+000
          4.262176060000e-001 6.109134930000e-001 0.000000000000e+000
          4.083256760000e-001 6.108101250000e-001 0.000000000000e+000
          4.074199840000e-001 1.678065540000e-001 0.000000000000e+000
          4.338525000000e-001 1.367993340000e-001 0.000000000000e+000
          4.419993050000e-001 1.735765240000e-001 0.000000000000e+000
          2.938198300000e-001 3.050000000000e-001 0.000000000000e+000
          3.040856940000e-001 3.370911280000e-001 0.000000000000e+000
          2.728783300000e-001 3.368892400000e-001 0.000000000000e+000
          4.245255210000e-001 6.751478260000e-001 0.000000000000e+000
          4.115146200000e-001 6.706797750000e-001 0.000000000000e+000
          2.172506940000e-001 6.543239900000e-001 0.000000000000e+000
          2.369118240000e-001 6.316770480000e-001 0.000000000000e+000
          2.468783150000e-001 6.519368170000e-001 0.000000000000e+000
          2.564526880000e-001 4.120000000000e-002 0.000000000000e+000
          3.448377420000e-001 6.129073000000e-001 0.000000000000e+000
          3.251379980000e-001 6.268927700000e-001 0.000000000000e+000
          3.273312140000e-001 5.994122080000e-001 0.000000000000e+000
          4.750000000000e-001 3.100000000000e-001 0.000000000000e+000
          4.622391060000e-001 3.191759170000e-001 0.000000000000e+000
          4.632789630000e-001 3.041741210000e-001 0.000000000000e+000
          1.686277520000e-001 5.768153050000e-001 0.000000000000e+000
          1.600733810000e-001 6.057946050000e-001 0.000000000000e+000
          1.336495140000e-001 5.702660460000e-001 0.000000000000e+000
          2.648985480000e-001 2.964243830000e-001 0.000000000000e+000
          4.750000000000e-001 6.810086020000e-001 0.000000000000e+000
          4.639688660000e-001 6.874614690000e-001 0.000000000000e+000
          4.675279960000e-001 6.755881310000e-001 0.000000000000e+000
          1.561569900000e-001 4.415648520000e-001 0.000000000000e+000
          1.171065000000e-001 4.689182860000e-001 0.000000000000e+000
          1.132137760000e-001 4.334105240000e-001 0.000000000000e+000
          4.561931150000e-001 6.630934020000e-001 0.000000000000e+000
          4.518916820000e-001 6.720976590000e-001 0.000000000000e+000
          4.522697350000e-001 6.939175990000e-001 0.000000000000e+000
          4.419733660000e-001 7.008709150000e-001 0.000000000000e+000
          4.414427990000e-001 6.880619320000e-001 0.000000000000e+000
          3.033683560000e-001 5.140865850000e-001 0.000000000000e+000
          2.832124480000e-001 4.946651860000e-001 0.000000000000e+000
          3.072265520000e-001 4.897188920000e-001 0.000000000000e+000
          4.221152260000e-001 2.910297120000e-001 0.000000000000e+000
          4.412966690000e-001 3.014644090000e-001 0.000000000000e+000
          4.299153840000e-001 3.056276890000e-001 0.000000000000e+000
          4.222588150000e-001 2.283775240000e-001 0.000000000000e+000
          4.357605810000e-001 2.536862780000e-001 0.000000000000e+000
          4.167418710000e-001 2.567880820000e-001 0.000000000000e+000
          1.638570440000e-001 1.794837980000e-001 0.000000000000e+000
          1.278151710000e-001 1.656272250000e-001 0.000000000000e+000
          1.617419920000e-001 1.377643790000e-001 0.000000000000e+000
          2.790434020000e-001 5.221415640000e-001 0.000000000000e+000
          1.305952380000e-001 4.029576320000e-001 0.000000000000e+000
          4.451347220000e-001 6.463338270000e-001 0.000000000000e+000
          4.413636270000e-001 6.322598450000e-001 0.000000000000e+000
          0.000000000000e+000 3.322666670000e-001 0.000000000000e+000
          4.030000000000e-002 3.241083040000e-001 0.000000000000e+000
          4.880000000000e-002 3.732204480000e-001 0.000000000000e+000
          4.096990520000e-001 5.970059090000e-001 0.000000000000e+000
          4.359622120000e-001 5.348093080000e-001 0.000000000000e+000
          8.634709500000e-002 1.861646220000e-001 0.000000000000e+000
          3.820000000000e-002 1.828048070000e-001 0.000000000000e+000
          1.912784940000e-001 1.603665230000e-001 0.000000000000e+000
          4.750000000000e-001 4.036036940000e-001 0.000000000000e+000
          4.642303300000e-001 4.105791900000e-001 0.000000000000e+000
          4.598121640000e-001 3.927740700000e-001 0.000000000000e+000
          2.401182360000e-001 6.738008570000e-001 0.000000000000e+000
          4.389592840000e-001 6.755823070000e-001 0.000000000000e+000
          4.750000000000e-001 3.296588890000e-001 0.000000000000e+000
          4.476987140000e-001 5.239335440000e-001 0.000000000000e+000
          0.000000000000e+000 3.797333330000e-001 0.000000000000e+000
          4.375000000000e-001 7.120000000000e-001 0.000000000000e+000
          4.475000000000e-001 7.120000000000e-001 0.000000000000e+000
          3.486106110000e-001 2.026073050000e-001 0.000000000000e+000
          3.165227960000e-001 2.081622480000e-001 0.000000000000e+000
          3.392437750000e-001 1.760088600000e-001 0.000000000000e+000
          3.790988860000e-001 3.453262370000e-001 0.000000000000e+000
          3.655035420000e-001 3.255507720000e-001 0.000000000000e+000
          3.843657540000e-001 3.249187520000e-001 0.000000000000e+000
          3.620975330000e-001 3.560346370000e-001 0.000000000000e+000
          3.512627780000e-001 3.391440580000e-001 0.000000000000e+000
          4.499617050000e-001 5.015835640000e-001 0.000000000000e+000
          4.342350580000e-001 5.014905690000e-001 0.000000000000e+000
          4.442913760000e-001 4.878780550000e-001 0.000000000000e+000
          4.428459580000e-001 5.878250430000e-001 0.000000000000e+000
          4.394391230000e-001 6.029122440000e-001 0.000000000000e+000
          4.750000000000e-001 3.000000000000e-001 0.000000000000e+000
          4.621409500000e-001 2.894091980000e-001 0.000000000000e+000
          2.375000000000e-001 0.000000000000e+000 0.000000000000e+000
          2.850000000000e-001 0.000000000000e+000 0.000000000000e+000
          3.328020250000e-001 1.169160730000e-001 0.000000000000e+000
          2.920212520000e-001 1.188378830000e-001 0.000000000000e+000
          2.291558360000e-001 5.885959210000e-001 0.000000000000e+000
          2.136428270000e-001 5.623651400000e-001 0.000000000000e+000
          2.442775890000e-001 5.609000500000e-001 0.000000000000e+000
          4.064206280000e-001 3.047299530000e-001 0.000000000000e+000
          4.182522270000e-001 3.108563120000e-001 0.000000000000e+000
          4.038465520000e-001 6.986003590000e-001 0.000000000000e+000
          4.028638560000e-001 6.886943560000e-001 0.000000000000e+000
          4.152648770000e-001 6.939116710000e-001 0.000000000000e+000
          3.503991620000e-001 3.921412100000e-001 0.000000000000e+000
          4.163989710000e-001 4.975390480000e-001 0.000000000000e+000
          4.089959850000e-001 4.792894720000e-001 0.000000000000e+000
          4.297013580000e-001 4.845435160000e-001 0.000000000000e+000
          1.264745580000e-001 6.127624150000e-001 0.000000000000e+000
          3.453115380000e-001 3.078956290000e-001 0.000000000000e+000
          3.197761870000e-001 5.295124480000e-001 0.000000000000e+000
          3.558901070000e-001 5.414409190000e-001 0.000000000000e+000
[...]
      <PointData Scalars="LIQUID_PRESSURE">
        <DataArray type="Float64" Name="LIQUID_PRESSURE" format="ascii">
          1.000001814101e+006 1.000001710399e+006 1.000001684364e+006 1.000001845467e+006 1.000000824113e+006 1.000000873358e+006 1.000000805950e+006 1.000000914526e+006 1.000000863363e+006 1.000000883121e+006 1.000000422376e+006 1.000000426356e+006 1.000000487520e+006 1.000000957962e+006 1.000000875013e+006 1.000000464277e+006 1.000001316144e+006 1.000001280964e+006 1.000001252977e+006 1.000006566980e+006 1.000000815199e+006 1.000001032918e+006 1.000001168473e+006 1.000001124165e+006 1.000001145042e+006 1.000001084397e+006 1.000001354796e+006 1.000000857004e+006 1.000000891027e+006 1.000000840166e+006 1.000000869479e+006 1.000000813997e+006 1.000000761888e+006 1.000000742335e+006 1.000000698705e+006 1.000000651739e+006 1.000000667433e+006 1.000001910648e+006 1.000001878659e+006 1.000001883886e+006 1.000001573183e+006 1.000001488200e+006 1.000001495685e+006 1.000000344139e+006 1.000000406413e+006 1.000001181173e+006 1.000000703953e+006 1.000000414247e+006 1.000005659283e+006 1.000000713670e+006 1.000000694450e+006 1.000000769593e+006 1.000001551148e+006 1.000001520376e+006 1.000001561241e+006 1.000000920229e+006 1.000000868003e+006 1.000000938043e+006 1.000001601894e+006 1.000000268912e+006 1.000000459532e+006 1.000000301500e+006 1.000001253988e+006 1.000001192830e+006 1.000001282944e+006 1.000000398576e+006 1.000000360622e+006 1.000000028312e+006 9.999996662142e+005 1.000000458209e+006 1.000001019338e+006 1.000001079457e+006 1.000001083100e+006 1.000001591713e+006 1.000001565633e+006 1.000001554550e+006 1.000001746250e+006 1.000001684093e+006 1.000001677290e+006 1.000001948487e+006 1.000002014053e+006 1.000001956843e+006 1.000001009331e+006 1.000001357521e+006 1.000000490315e+006 1.000000555819e+006 1.000001557283e+006 1.000001577494e+006 1.000001445887e+006 1.000000712769e+006 1.000000906054e+006 1.000001969948e+006 1.000002007526e+006 1.000001973939e+006 1.000001289830e+006 1.000001270499e+006 1.000001320031e+006 1.000002381107e+006 1.000000328374e+006 1.000001491706e+006 1.000000938277e+006 1.000001430787e+006 1.000000000000e+006 1.000000000000e+006 1.000001817244e+006 1.000001807307e+006 1.000001892057e+006 1.000001453973e+006 1.000001507395e+006 1.000001506826e+006 1.000001428089e+006 1.000001474093e+006 1.000001007055e+006 1.000001009456e+006 1.000001048955e+006 1.000000726529e+006 1.000000673214e+006 1.000001577042e+006 1.000001596826e+006 9.999874952951e+005 9.999870132245e+005 1.000002207700e+006 1.000002355633e+006 1.000000877505e+006 1.000000941220e+006 1.000000929486e+006 1.000001557316e+006 1.000001541130e+006 9.999971494860e+005 1.000000551610e+006 9.999995497873e+005 1.000001334029e+006 1.000001024753e+006 1.000001080013e+006 1.000001060813e+006 1.000000895536e+006 1.000001555945e+006 1.000000969599e+006 1.000000917284e+006 1.000000939905e+006 1.000001005496e+006 1.000000977287e+006 1.000001033959e+006 9.999899868510e+005 1.000002930760e+006 1.000009579791e+006 1.000001218571e+006 1.000001172644e+006 1.000001176486e+006 1.000001019529e+006 1.000000423733e+006 1.000000597723e+006 1.000000996094e+006 1.000001320559e+006 1.000001353035e+006 1.000001300415e+006 1.000000775227e+006 1.000000867347e+006 1.000000941112e+006 1.000001106968e+006 1.000002112257e+006 1.000002533990e+006 1.000002053143e+006 1.000000462143e+006 1.000000497783e+006 1.000000471859e+006 1.000000466464e+006 1.000000515931e+006 1.000000658766e+006 1.000000607602e+006 1.000001174311e+006 1.000001215738e+006 1.000001230720e+006 9.999948934597e+005 1.000001134630e+006 1.000001203347e+006 1.000001398912e+006 1.000001050683e+006 1.000001008253e+006 1.000001607144e+006 1.000001447048e+006 1.000001347739e+006 1.000001026832e+006 1.000001069689e+006 1.000001005975e+006 1.000000811956e+006 9.999997199542e+005 1.000001617537e+006 1.000000552043e+006 1.000001688110e+006 1.000000233012e+006 1.000001190498e+006 1.000001267479e+006 1.000001150454e+006 1.000001937014e+006 1.000001945614e+006 1.000001276132e+006 1.000001224983e+006 1.000001085936e+006 1.000001096512e+006 1.000000563632e+006 1.000000753722e+006 1.000001901242e+006 1.000001631788e+006 1.000001632185e+006 1.000001544146e+006 1.000001507948e+006 1.000001527801e+006 9.999784735489e+005 1.000000292866e+006 1.000001716762e+006 1.000001190603e+006 1.000001440088e+006 1.000001432226e+006 1.000001474970e+006 1.000000701115e+006 1.000000637281e+006 1.000000634428e+006 1.000001134977e+006 1.000001549675e+006 1.000001350800e+006 1.000001455216e+006 1.000000814405e+006 1.000006569457e+006 1.000001166522e+006 1.000001695923e+006 1.000001659782e+006 1.000001630991e+006 9.999991712620e+005 1.000002135635e+006 1.000001178421e+006 1.000001105598e+006 1.000001058622e+006 1.000001727999e+006 1.000001589856e+006 1.000000618181e+006 1.000001584632e+006 1.000000357467e+006 1.000001489250e+006 9.999950268119e+005 1.000001509461e+006 1.000001339093e+006 1.000001402486e+006 1.000000619815e+006 1.000001085550e+006 1.000002367431e+006 1.000000959269e+006 1.000001842616e+006 1.000000635283e+006 1.000000726923e+006 1.000000427797e+006 1.000000270463e+006 1.000001883125e+006 1.000001237620e+006 1.000001927932e+006 1.000001543859e+006 1.000001503524e+006 1.000001483029e+006 1.000001416478e+006 1.000001892783e+006 1.000001869734e+006 1.000001255866e+006 1.000001498576e+006 1.000001794594e+006 1.000001755283e+006 1.000001727012e+006 1.000001932059e+006 1.000001840657e+006 1.000001169858e+006 1.000034982232e+006 1.000030039205e+006 1.000001771307e+006 1.000000919825e+006 1.000000535955e+006 1.000002356336e+006 1.000000422821e+006 1.000002381117e+006 1.000000689569e+006 1.000001396647e+006 1.000001030951e+006 1.000001007531e+006 1.000000635923e+006 1.000001441004e+006 1.000001422024e+006 1.000001128614e+006 1.000001157258e+006 1.000001206882e+006 1.000001716756e+006 1.000001128834e+006 9.999862855670e+005 1.000006334951e+006 1.000001302117e+006 1.000001765168e+006 1.000001862219e+006 1.000001829634e+006 1.000000824865e+006 1.000000790860e+006 1.000001370454e+006 1.000000679635e+006 1.000001485920e+006 1.000001448074e+006 1.000001003277e+006 1.000001308359e+006 1.000000818526e+006 1.000000824811e+006 1.000000617519e+006 1.000001931840e+006 1.000001678666e+006 1.000001755351e+006 1.000001676867e+006 1.000000737112e+006 1.000000702789e+006 1.000001071798e+006 1.000000894848e+006 1.000000710339e+006 1.000000664636e+006 1.000000944143e+006 1.000000877916e+006 1.000000866902e+006 1.000000887252e+006 1.000001335479e+006 1.000002227555e+006 1.000000472755e+006 1.000000425179e+006 1.000001592231e+006 1.000012512271e+006 9.999963339219e+005 1.000017888351e+006 1.000000775276e+006 1.000002217197e+006 1.000001379922e+006 1.000000455597e+006 1.000002017496e+006 1.000001227944e+006 1.000000873404e+006 1.000000958196e+006 1.000001034688e+006 1.000001075660e+006 1.000001251339e+006 1.000000820544e+006 1.000001388295e+006 1.000001272394e+006 1.000001278477e+006 1.000000978200e+006 1.000001428699e+006 1.000001254715e+006 1.000001118951e+006 1.000000989894e+006 1.000001725852e+006 1.000000559377e+006 1.000001062078e+006 1.000000590602e+006 1.000000582949e+006 1.000000551296e+006 1.000002017007e+006 1.000001558424e+006 1.000001615514e+006 1.000000672191e+006 1.000001511899e+006 1.000000523708e+006 1.000000444191e+006 1.000000628511e+006 1.000001946116e+006 1.000002114448e+006 9.999944941789e+005 1.000001016496e+006 1.000001081037e+006 1.000000920370e+006 1.000003276169e+006 1.000000968648e+006 1.000001187341e+006 1.000001255427e+006 1.000001548882e+006 1.000001064583e+006 1.000001801412e+006 1.000000790767e+006 1.000000703069e+006 1.000000759310e+006 1.000000995946e+006 1.000001190062e+006 1.000000526426e+006 1.000001361174e+006 1.000001467903e+006 1.000002138805e+006 1.000001083446e+006 1.000000913154e+006 1.000000924824e+006 1.000007385260e+006 1.000001329461e+006 9.999996176242e+005 1.000001282240e+006 1.000001869506e+006 1.000000420273e+006 1.000001467575e+006 1.000000608862e+006 1.000000917489e+006 1.000000982210e+006 1.000000629162e+006 1.000000578681e+006 1.000000606353e+006 1.000000731373e+006 1.000002358667e+006 1.000001120350e+006 1.000000922934e+006 1.000001976618e+006 1.000000688203e+006 1.000000833969e+006 1.000001771385e+006 1.000000868637e+006 1.000001373863e+006 1.000007414926e+006 1.000001724447e+006 1.000001688506e+006 1.000000879636e+006 1.000000953320e+006 1.000000770796e+006 1.000001410309e+006 1.000001389128e+006 1.000000787121e+006 1.000000387945e+006 1.000001282440e+006 1.000000230874e+006 1.000002903347e+006 9.999943681547e+005 1.000001044420e+006 1.000001626706e+006 1.000001667970e+006 1.000000515222e+006 1.000001538819e+006 1.000001282764e+006 1.000028404013e+006 1.000023967341e+006 1.000001520273e+006 1.000001406584e+006 1.000000521523e+006 1.000025152562e+006 9.999948421928e+005 1.000001619695e+006 1.000001529088e+006 1.000001553760e+006 1.000002261770e+006 1.000001305677e+006 1.000001811923e+006 1.000001193197e+006 1.000001145690e+006 1.000001162262e+006 9.999955471386e+005 1.000002201016e+006 9.999888878335e+005 1.000001832376e+006 1.000000814754e+006 1.000000669534e+006 1.000000588646e+006 1.000000726558e+006 1.000000749578e+006 1.000007447884e+006 1.000001329311e+006 1.000000984091e+006 1.000001796146e+006 1.000000722818e+006 1.000001275318e+006 9.999828417823e+005 1.000001431212e+006 1.000000960101e+006 1.000001212758e+006 1.000000455900e+006 1.000000484469e+006 1.000001625160e+006 1.000001861070e+006 9.999943997755e+005 1.000000077769e+006 1.000000849703e+006 1.000001789943e+006 1.000001846438e+006 1.000001749303e+006 1.000001635462e+006 9.999956037502e+005 1.000001643165e+006 1.000001638904e+006 1.000001140744e+006 1.000001138031e+006 1.000002017217e+006 1.000001025794e+006 1.000001750615e+006 1.000001140701e+006 1.000001668989e+006 1.000000773835e+006 1.000001943719e+006 1.000000440521e+006 1.000000695996e+006 1.000001778220e+006 1.000038656852e+006 1.000001133447e+006 1.000045233109e+006 1.000001493635e+006 1.000030191608e+006 1.000000551343e+006 1.000021806519e+006 1.000001473603e+006 1.000000493944e+006 1.000000770292e+006 9.999872852757e+005 1.000003676308e+006 1.000007752827e+006 1.000001936847e+006 1.000001203662e+006 1.000001391186e+006 1.000000707857e+006 1.000000517077e+006 1.000036650108e+006 1.000027959421e+006 9.999940649498e+005 1.000001031738e+006 1.000000974252e+006 1.000000791197e+006 9.999936027350e+005 1.000001407866e+006 1.000042009618e+006 1.000047041373e+006 1.000004356544e+006 1.000001780568e+006 9.999991327518e+005 1.000038401801e+006 9.999995937015e+005 1.000000557540e+006 1.000001813436e+006 1.000000761258e+006 9.999986294622e+005 1.000001994379e+006 1.000001098662e+006 1.000002547959e+006 9.999819732211e+005 1.000001334637e+006 1.000046235299e+006 1.000001179653e+006 1.000042934382e+006 1.000001241238e+006 9.999946976207e+005 1.000000583599e+006 1.000000574412e+006 1.000045605022e+006 1.000001887839e+006 1.000000789648e+006 1.000000720947e+006 1.000001075534e+006 1.000041614094e+006 9.999961384160e+005 1.000001852242e+006 1.000001348494e+006 1.000001397930e+006 1.000001526147e+006 1.000000414582e+006 1.000000364024e+006 9.999977194978e+005 1.000001422713e+006 1.000001444279e+006 9.999895837286e+005 1.000003906617e+006 9.999815094128e+005 1.000001422554e+006 1.000001786461e+006 1.000002223824e+006 9.999993860282e+005 1.000000406881e+006 1.000000222901e+006 1.000001214344e+006 1.000001342577e+006 1.000025867230e+006 1.000011561687e+006 1.000001848392e+006 1.000001917980e+006 1.000000358563e+006 1.000001051964e+006 1.000000797811e+006 1.000001825600e+006 1.000000678511e+006 1.000002592152e+006 1.000001374702e+006 1.000001363744e+006 1.000000786361e+006 1.000000525244e+006 1.000001119417e+006 1.000001142795e+006 1.000001703684e+006 1.000000993422e+006 1.000001614198e+006 1.000002061903e+006 1.000000740069e+006 1.000001336437e+006 1.000001735806e+006 1.000001628058e+006 1.000001567538e+006 1.000001718964e+006 1.000001641399e+006 1.000001176050e+006 1.000001652590e+006 1.000001594327e+006 1.000001676496e+006 1.000000565160e+006 1.000000833577e+006 1.000001700641e+006 
        </DataArray>
        <DataArray type="Float64" Name="MEAN_PRESSURE" format="ascii">