<?xml version="1.0"?>
<VTKFile type="UnstructuredGrid" version="0.1" byte_order="LittleEndian">
  <UnstructuredGrid>
    <Piece NumberOfPoints="601" NumberOfCells="1114">
      <Points>
        <DataArray type="Float64" NumberOfComponents="3" format="ascii">
          9.510000000000e-002 2.350697990000e-001 0.000000000000e+000
          1.063631230000e-001 2.714774400000e-001 0.000000000000e+000
          6.050000000000e-002 2.846704020000e-001 0.000000000000e+000
          5.720000000000e-002 2.264127830000e-001 0.000000000000e+000
          3.607917390000e-001 5.721080920000e-001 0.000000000000e+000
          3.768558020000e-001 5.525748860000e-001 0.000000000000e+000
          3.789778370000e-001 5.742477180000e-001 0.000000000000e+000
          3.136481190000e-001 5.509609410000e-001 0.000000000000e+000
          3.128188330000e-001 5.700416560000e-001 0.000000000000e+000
          2.881707800000e-001 5.687733920000e-001 0.000000000000e+000
          4.429907380000e-001 6.611719170000e-001 0.000000000000e+000
          4.320814310000e-001 6.642626630000e-001 0.000000000000e+000
          4.324781590000e-001 6.492754290000e-001 0.000000000000e+000
          2.969991220000e-001 5.382558640000e-001 0.000000000000e+000
          3.554110690000e-001 5.560310200000e-001 0.000000000000e+000
          4.214534510000e-001 6.601358340000e-001 0.000000000000e+000
          3.005429170000e-001 4.030809660000e-001 0.000000000000e+000
          3.340207110000e-001 4.132574770000e-001 0.000000000000e+000
          3.087980550000e-001 4.260963220000e-001 0.000000000000e+000
          3.053610030000e-001 3.660000000000e-002 0.000000000000e+000
          3.226354220000e-001 7.560000000000e-002 0.000000000000e+000
          2.746654270000e-001 8.220000000000e-002 0.000000000000e+000
          3.714377890000e-001 4.511813880000e-001 0.000000000000e+000
          3.808127360000e-001 4.661551930000e-001 0.000000000000e+000
          3.485926620000e-001 4.618266300000e-001 0.000000000000e+000
          3.675564050000e-001 4.815381760000e-001 0.000000000000e+000
          3.187177420000e-001 3.868419500000e-001 0.000000000000e+000
          4.410873470000e-001 5.496885300000e-001 0.000000000000e+000
          4.522404520000e-001 5.386010270000e-001 0.000000000000e+000
          4.593241840000e-001 5.538167910000e-001 0.000000000000e+000
          4.014960550000e-001 5.499755270000e-001 0.000000000000e+000
          3.980412370000e-001 5.681797670000e-001 0.000000000000e+000
          4.118653570000e-001 5.818986230000e-001 0.000000000000e+000
          4.290214690000e-001 5.850384460000e-001 0.000000000000e+000
          4.227055460000e-001 5.985109270000e-001 0.000000000000e+000
          4.262176060000e-001 6.109134930000e-001 0.000000000000e+000
          4.083256760000e-001 6.108101250000e-001 0.000000000000e+000
          4.074199840000e-001 1.678065540000e-001 0.000000000000e+000
          4.338525000000e-001 1.367993340000e-001 0.000000000000e+000
          4.419993050000e-001 1.735765240000e-001 0.000000000000e+000
          2.938198300000e-001 3.050000000000e-001 0.000000000000e+000
          3.040856940000e-001 3.370911280000e-001 0.000000000000e+000
          2.728783300000e-001 3.368892400000e-001 0.000000000000e+000
          4.245255210000e-001 6.751478260000e-001 0.000000000000e+000
          4.115146200000e-001 6.706797750000e-001 0.000000000000e+000
          2.172506940000e-001 6.543239900000e-001 0.000000000000e+000
          2.369118240000e-001 6.316770480000e-001 0.000000000000e+000
          2.468783150000e-001 6.519368170000e-001 0.000000000000e+000
          2.564526880000e-001 4.120000000000e-002 0.000000000000e+000
          3.448377420000e-001 6.129073000000e-001 0.000000000000e+000
          3.251379980000e-001 6.268927700000e-001 0.000000000000e+000
          3.273312140000e-001 5.994122080000e-001 0.000000000000e+000
          4.750000000000e-001 3.100000000000e-001 0.000000000000e+000
          4.622391060000e-001 3.191759170000e-001 0.000000000000e+000
          4.632789630000e-001 3.041741210000e-001 0.000000000000e+000
          1.686277520000e-001 5.768153050000e-001 0.000000000000e+000
          1.600733810000e-001 6.057946050000e-001 0.000000000000e+000
          1.336495140000e-001 5.702660460000e-001 0.000000000000e+000
          2.648985480000e-001 2.964243830000e-001 0.000000000000e+000
          4.750000000000e-001 6.810086020000e-001 0.000000000000e+000
          4.639688660000e-001 6.874614690000e-001 0.000000000000e+000
          4.675279960000e-001 6.755881310000e-001 0.000000000000e+000
          1.561569900000e-001 4.415648520000e-001 0.000000000000e+000
          1.171065000000e-001 4.689182860000e-001 0.000000000000e+000
          1.132137760000e-001 4.334105240000e-001 0.000000000000e+000
          4.561931150000e-001 6.630934020000e-001 0.000000000000e+000
          4.518916820000e-001 6.720976590000e-001 0.000000000000e+000
          4.522697350000e-001 6.939175990000e-001 0.000000000000e+000
          4.419733660000e-001 7.008709150000e-001 0.000000000000e+000
          4.414427990000e-001 6.880619320000e-001 0.000000000000e+000
          3.033683560000e-001 5.140865850000e-001 0.000000000000e+000
          2.832124480000e-001 4.946651860000e-001 0.000000000000e+000
          3.072265520000e-001 4.897188920000e-001 0.000000000000e+000
          4.221152260000e-001 2.910297120000e-001 0.000000000000e+000
          4.412966690000e-001 3.014644090000e-001 0.000000000000e+000
          4.299153840000e-001 3.056276890000e-001 0.000000000000e+000
          4.222588150000e-001 2.283775240000e-001 0.000000000000e+000
          4.357605810000e-001 2.536862780000e-001 0.000000000000e+000
          4.167418710000e-001 2.567880820000e-001 0.000000000000e+000
          1.638570440000e-001 1.794837980000e-001 0.000000000000e+000
          1.278151710000e-001 1.656272250000e-001 0.000000000000e+000
          1.617419920000e-001 1.377643790000e-001 0.000000000000e+000
          2.790434020000e-001 5.221415640000e-001 0.000000000000e+000
          1.305952380000e-001 4.029576320000e-001 0.000000000000e+000
          4.451347220000e-001 6.463338270000e-001 0.000000000000e+000
          4.413636270000e-001 6.322598450000e-001 0.000000000000e+000
          0.000000000000e+000 3.322666670000e-001 0.000000000000e+000
          4.030000000000e-002 3.241083040000e-001 0.000000000000e+000
          4.880000000000e-002 3.732204480000e-001 0.000000000000e+000
          4.096990520000e-001 5.970059090000e-001 0.000000000000e+000
          4.359622120000e-001 5.348093080000e-001 0.000000000000e+000
          8.634709500000e-002 1.861646220000e-001 0.000000000000e+000
          3.820000000000e-002 1.828048070000e-001 0.000000000000e+000
          1.912784940000e-001 1.603665230000e-001 0.000000000000e+000
          4.750000000000e-001 4.036036940000e-001 0.000000000000e+000
          4.642303300000e-001 4.105791900000e-001 0.000000000000e+000
          4.598121640000e-001 3.927740700000e-001 0.000000000000e+000
          2.401182360000e-001 6.738008570000e-001 0.000000000000e+000
          4.389592840000e-001 6.755823070000e-001 0.000000000000e+000
          4.750000000000e-001 3.296588890000e-001 0.000000000000e+000
          4.476987140000e-001 5.239335440000e-001 0.000000000000e+000
          0.000000000000e+000 3.797333330000e-001 0.000000000000e+000
          4.375000000000e-001 7.120000000000e-001 0.000000000000e+000
          4.475000000000e-001 7.120000000000e-001 0.000000000000e+000
          3.486106110000e-001 2.026073050000e-001 0.000000000000e+000
          3.165227960000e-001 2.081622480000e-001 0.000000000000e+000
          3.392437750000e-001 1.760088600000e-001 0.000000000000e+000
          3.790988860000e-001 3.453262370000e-001 0.000000000000e+000
          3.655035420000e-001 3.255507720000e-001 0.000000000000e+000
          3.843657540000e-001 3.249187520000e-001 0.000000000000e+000
          3.620975330000e-001 3.560346370000e-001 0.000000000000e+000
          3.512627780000e-001 3.391440580000e-001 0.000000000000e+000
          4.499617050000e-001 5.015835640000e-001 0.000000000000e+000
          4.342350580000e-001 5.014905690000e-001 0.000000000000e+000
          4.442913760000e-001 4.878780550000e-001 0.000000000000e+000
          4.428459580000e-001 5.878250430000e-001 0.000000000000e+000
          4.394391230000e-001 6.029122440000e-001 0.000000000000e+000
          4.750000000000e-001 3.000000000000e-001 0.000000000000e+000
          4.621409500000e-001 2.894091980000e-001 0.000000000000e+000
          2.375000000000e-001 0.000000000000e+000 0.000000000000e+000
          2.850000000000e-001 0.000000000000e+000 0.000000000000e+000
          3.328020250000e-001 1.169160730000e-001 0.000000000000e+000
          2.920212520000e-001 1.188378830000e-001 0.000000000000e+000
          2.291558360000e-001 5.885959210000e-001 0.000000000000e+000
          2.136428270000e-001 5.623651400000e-001 0.000000000000e+000
          2.442775890000e-001 5.609000500000e-001 0.000000000000e+000
          4.064206280000e-001 3.047299530000e-001 0.000000000000e+000
          4.182522270000e-001 3.108563120000e-001 0.000000000000e+000
          4.038465520000e-001 6.986003590000e-001 0.000000000000e+000
          4.028638560000e-001 6.886943560000e-001 0.000000000000e+000
          4.152648770000e-001 6.939116710000e-001 0.000000000000e+000
          3.503991620000e-001 3.921412100000e-001 0.000000000000e+000
          4.163989710000e-001 4.975390480000e-001 0.000000000000e+000
          4.089959850000e-001 4.792894720000e-001 0.000000000000e+000
          4.297013580000e-001 4.845435160000e-001 0.000000000000e+000
          1.264745580000e-001 6.127624150000e-001 0.000000000000e+000
          3.453115380000e-001 3.078956290000e-001 0.000000000000e+000
          3.197761870000e-001 5.295124480000e-001 0.000000000000e+000
          3.558901070000e-001 5.414409190000e-001 0.000000000000e+000
[...]
      <PointData Scalars="LIQUID_PRESSURE">
        <DataArray type="Float64" Name="LIQUID_PRESSURE" format="ascii">
          1.009342786015e+006 1.008629205831e+006 1.008370593071e+006 1.009512444803e+006 1.002737612623e+006 1.003120444745e+006 1.002695767519e+006 1.003151830650e+006 1.002777881155e+006 1.002802626907e+006 1.000993455914e+006 1.000932830432e+006 1.001226331597e+006 1.003400766275e+006 1.003052638625e+006 1.001013504496e+006 1.006049989809e+006 1.005850579106e+006 1.005598932774e+006 1.013247666109e+006 1.012466631034e+006 1.012336811238e+006 1.005107398558e+006 1.004813967162e+006 1.004898747231e+006 1.004512485751e+006 1.006368265887e+006 1.003177164770e+006 1.003394431874e+006 1.003096307436e+006 1.003171454717e+006 1.002814738293e+006 1.002545984785e+006 1.002484530319e+006 1.002220578963e+006 1.001977637370e+006 1.001979550299e+006 1.010661165358e+006 1.011269034229e+006 1.010548028056e+006 1.007972268847e+006 1.007343312119e+006 1.007347256548e+006 1.000719827396e+006 1.000806859399e+006 1.001125429498e+006 1.001569661054e+006 1.001172747200e+006 1.013156876422e+006 1.001938004975e+006 1.001663751733e+006 1.002202357715e+006 1.007874025465e+006 1.007694276943e+006 1.007988235760e+006 1.002644600090e+006 1.002076492651e+006 1.002772891234e+006 1.008140339156e+006 1.000607114503e+006 1.000484354559e+006 1.000711726807e+006 1.005295542204e+006 1.004759353155e+006 1.005455318628e+006 1.000955940406e+006 1.000779746303e+006 1.000361719656e+006 1.000225464431e+006 1.000469351622e+006 1.003874463867e+006 1.004255039835e+006 1.004352037384e+006 1.008245980620e+006 1.008041430770e+006 1.007959866866e+006 1.009473921518e+006 1.008977851533e+006 1.008917095740e+006 1.010432307981e+006 1.010703870304e+006 1.011250177398e+006 1.003716526409e+006 1.006052219641e+006 1.001284014867e+006 1.001559606723e+006 1.007437701391e+006 1.007597612475e+006 1.006635018827e+006 1.002249998952e+006 1.003468706678e+006 1.010301325787e+006 1.010367135143e+006 1.010807035236e+006 1.006039820081e+006 1.005903123782e+006 1.006252044399e+006 1.000741293177e+006 1.000711427948e+006 1.007488855755e+006 1.003681829860e+006 1.006507355850e+006 1.000000000000e+006 1.000000000000e+006 1.009979122992e+006 1.009870260840e+006 1.010500459993e+006 1.007181913799e+006 1.007569484891e+006 1.007581860331e+006 1.006972052429e+006 1.007303080843e+006 1.004119782421e+006 1.004121591324e+006 1.004388346472e+006 1.002429991600e+006 1.002134431184e+006 1.008069965459e+006 1.008277620884e+006 1.013867008652e+006 1.013865462977e+006 1.011658864487e+006 1.011621333504e+006 1.002413858512e+006 1.002927958702e+006 1.002956771133e+006 1.007977503287e+006 1.007857418658e+006 1.000290626147e+006 1.000461520411e+006 1.000367970191e+006 1.006264429538e+006 1.004199003238e+006 1.004556615309e+006 1.004453678133e+006 1.001939758723e+006 1.007915511167e+006 1.003572197953e+006 1.003338554963e+006 1.003528288102e+006 1.004118338447e+006 1.003934770220e+006 1.004299387018e+006 1.013878994057e+006 1.012920636424e+006 1.013218430555e+006 1.005534830545e+006 1.005223696204e+006 1.005240027995e+006 1.000737279047e+006 1.000979813500e+006 1.001153024606e+006 1.003245336812e+006 1.006214279770e+006 1.006467444341e+006 1.006091842097e+006 1.001776017407e+006 1.002552851042e+006 1.003160646610e+006 1.004753121645e+006 1.011159172820e+006 1.012027335112e+006 1.011224749202e+006 1.000581411040e+006 1.001095314679e+006 1.001258749080e+006 1.001221075176e+006 1.001435789160e+006 1.002093234740e+006 1.001828763972e+006 1.005183058077e+006 1.005442082007e+006 1.005571937862e+006 1.000493270219e+006 1.004763988955e+006 1.005283985202e+006 1.006652404220e+006 1.003621633849e+006 1.003275766807e+006 1.008365349878e+006 1.006754952082e+006 1.006035215579e+006 1.004130537758e+006 1.004453144541e+006 1.004027603469e+006 1.002914845693e+006 1.000351999345e+006 1.008446190183e+006 1.001477666004e+006 1.008368022556e+006 1.000410021896e+006 1.004646610769e+006 1.005277456825e+006 1.004314027606e+006 1.011594984040e+006 1.010960647340e+006 1.005939289782e+006 1.005585040999e+006 1.004637456498e+006 1.004698183418e+006 1.000208821985e+006 1.001966527214e+006 1.010434456711e+006 1.008405638189e+006 1.008464144667e+006 1.007870494130e+006 1.007606073547e+006 1.007755570215e+006 1.013837389891e+006 1.000649413295e+006 1.009227531851e+006 1.005237183560e+006 1.007113050118e+006 1.007055673973e+006 1.007364934966e+006 1.002032909261e+006 1.001706450541e+006 1.001619632289e+006 1.004962893150e+006 1.007830930220e+006 1.005942603572e+006 1.006762506512e+006 1.002006086190e+006 1.013203293120e+006 1.004614934200e+006 1.008993627416e+006 1.008743292705e+006 1.008495632686e+006 1.000275937304e+006 1.000180445375e+006 1.004584319311e+006 1.004022276012e+006 1.003675255788e+006 1.009271321124e+006 1.008225339584e+006 1.001842497138e+006 1.008181956891e+006 1.000552052807e+006 1.000645071409e+006 1.000331878198e+006 1.000612089392e+006 1.006388748183e+006 1.006626834608e+006 1.000515244258e+006 1.004471086297e+006 1.012011689834e+006 1.003824949094e+006 1.010348170622e+006 1.001286542403e+006 1.002275916048e+006 1.001077871953e+006 1.000574316861e+006 1.009699968628e+006 1.005568722581e+006 1.010942952354e+006 1.007658997603e+006 1.007268173551e+006 1.007165209068e+006 1.006637485960e+006 1.010764440741e+006 1.011106421424e+006 1.005788798259e+006 1.007459414598e+006 1.009881850316e+006 1.009557830401e+006 1.009324076663e+006 1.010872992535e+006 1.010253159351e+006 1.012301483019e+006 1.000113957767e+006 1.000109938290e+006 1.008939737296e+006 1.002522027345e+006 1.012594684034e+006 1.011949645623e+006 1.000893965929e+006 1.011763991128e+006 1.001348564314e+006 1.006799865004e+006 1.002785693992e+006 1.002963359499e+006 1.002136782619e+006 1.007040051204e+006 1.006865292339e+006 1.004509740766e+006 1.004664978472e+006 1.005122333123e+006 1.009204732075e+006 1.012463094000e+006 1.013864001541e+006 1.013231518852e+006 1.006115947893e+006 1.009127545357e+006 1.009831597893e+006 1.009674532461e+006 1.002931518189e+006 1.002766074962e+006 1.006580537793e+006 1.001973534553e+006 1.007446170656e+006 1.007169435700e+006 1.003577239865e+006 1.005576991733e+006 1.002400658983e+006 1.002571728831e+006 1.001670209095e+006 1.011335625251e+006 1.008728439107e+006 1.009359624642e+006 1.008781616455e+006 1.001307671121e+006 1.000907648451e+006 1.004121083668e+006 1.001855999775e+006 1.002367342106e+006 1.002135811751e+006 1.003681790637e+006 1.003270702171e+006 1.003259540716e+006 1.003379308312e+006 1.006357177474e+006 1.012089414749e+006 1.001026047813e+006 1.000913334960e+006 1.008215231824e+006 1.000063939951e+006 1.000764552346e+006 1.000086091446e+006 1.002557550840e+006 1.012195439905e+006 1.006626936407e+006 1.001211539329e+006 1.000632139790e+006 1.005209024424e+006 1.002375850747e+006 1.002989395342e+006 1.004241802992e+006 1.004349685913e+006 1.005744809207e+006 1.002987178782e+006 1.006642469252e+006 1.005876718837e+006 1.005888888783e+006 1.003929808693e+006 1.006674416055e+006 1.005203809057e+006 1.004861343510e+006 1.003382959947e+006 1.009188325961e+006 1.001616568443e+006 1.003716231337e+006 1.001327263916e+006 1.001436242166e+006 1.001180426168e+006 1.011140047724e+006 1.007974193031e+006 1.008414685183e+006 1.001764981955e+006 1.007638615511e+006 1.000672514982e+006 1.001113624645e+006 1.001449993495e+006 1.010677077863e+006 1.011420727259e+006 1.000305512965e+006 1.003503139201e+006 1.003956030163e+006 1.003457544509e+006 1.012934597490e+006 1.003748825015e+006 1.005048335882e+006 1.005558677619e+006 1.007886918578e+006 1.003972029598e+006 1.001310873592e+006 1.001978285345e+006 1.002335904306e+006 1.002411204986e+006 1.002691179268e+006 1.005127251988e+006 1.001487644364e+006 1.005987883223e+006 1.007311956787e+006 1.011904951973e+006 1.004045709546e+006 1.003538740702e+006 1.003607522098e+006 1.013347004907e+006 1.006257968825e+006 1.000919054241e+006 1.005698000961e+006 1.000176118180e+006 1.012575753398e+006 1.007091539670e+006 1.001731021334e+006 1.003487583101e+006 1.003902642169e+006 1.001962881754e+006 1.001722311012e+006 1.001846020093e+006 1.012533149790e+006 1.012068103550e+006 1.004813159464e+006 1.003303275692e+006 1.010228720461e+006 1.001328158621e+006 1.003017986514e+006 1.009587890899e+006 1.002930366973e+006 1.006633619599e+006 1.013319835855e+006 1.009310254517e+006 1.009016344339e+006 1.001750560983e+006 1.003688671177e+006 1.002406006361e+006 1.006894572209e+006 1.006746419905e+006 1.002785433179e+006 1.000918115277e+006 1.005646396973e+006 1.001473799477e+006 1.000910866360e+006 1.000389565425e+006 1.004214012693e+006 1.008514330249e+006 1.008830644102e+006 1.001414190072e+006 1.007348397367e+006 1.005893155053e+006 1.000106727888e+006 1.000101090374e+006 1.007693615518e+006 1.006611884349e+006 1.001001430461e+006 1.000102538696e+006 1.000639331422e+006 1.008052967733e+006 1.007402614314e+006 1.007515523252e+006 1.011821103200e+006 1.012520409945e+006 1.010028247148e+006 1.005367353205e+006 1.005043404373e+006 1.001225300797e+006 1.000557269990e+006 1.000967567129e+006 1.013875272142e+006 1.010203089353e+006 1.002591438115e+006 1.001624768641e+006 1.001179155510e+006 1.002462318287e+006 1.002583944812e+006 1.013235123405e+006 1.006099330679e+006 1.003940402876e+006 1.009855601159e+006 1.002075459652e+006 1.005523241289e+006 1.013853251104e+006 1.006549240149e+006 1.003803480058e+006 1.005466640550e+006 1.000932637707e+006 1.000662936885e+006 1.008002374262e+006 1.011006184611e+006 1.000344260423e+006 1.000403701402e+006 1.000520367643e+006 1.009458745485e+006 1.009978626939e+006 1.009236518066e+006 1.008588498121e+006 1.000459852872e+006 1.008651013678e+006 1.008615571693e+006 1.004665729323e+006 1.004719734200e+006 1.012308846363e+006 1.003987326501e+006 1.009490108423e+006 1.004468303234e+006 1.008858464506e+006 1.002721491784e+006 1.011107036191e+006 1.000755837507e+006 1.002278940386e+006 1.009683834822e+006 1.000115355334e+006 1.004921789126e+006 1.000088571596e+006 1.007498752757e+006 1.000110712888e+006 1.001363917643e+006 1.000096234682e+006 1.007341978638e+006 1.000945194746e+006 1.002673614380e+006 1.013868905716e+006 1.013099867897e+006 1.013313341476e+006 1.011496865988e+006 1.004962670188e+006 1.006687020449e+006 1.001663326058e+006 1.001283283771e+006 1.000114581756e+006 1.000103670380e+006 1.000312842476e+006 1.004087447233e+006 1.003688135184e+006 1.001642625481e+006 1.000349136626e+006 1.006844019284e+006 1.000115466699e+006 1.000113267350e+006 1.000197999013e+006 1.009165321946e+006 1.000240120479e+006 1.000115444127e+006 1.000231651350e+006 1.001621819530e+006 1.009798244499e+006 1.002255350007e+006 1.000238973207e+006 1.000823638322e+006 1.004727379981e+006 1.011820860383e+006 1.013851546706e+006 1.005993946916e+006 1.000093848835e+006 1.012700042450e+006 1.000117960375e+006 1.005699424204e+006 1.000385535216e+006 1.001654168232e+006 1.001521159586e+006 1.000114965522e+006 1.010195381177e+006 1.002051826766e+006 1.001676282637e+006 1.004573232410e+006 1.000116594745e+006 1.000257596654e+006 1.000645692675e+006 1.006199217425e+006 1.006792973850e+006 1.001414010296e+006 1.001035471154e+006 1.000817707533e+006 1.000484012852e+006 1.006980548860e+006 1.007132580654e+006 1.013877119347e+006 1.013026209207e+006 1.013849714934e+006 1.006963148888e+006 1.009805421966e+006 1.000212216314e+006 1.000320954860e+006 1.000448373297e+006 1.000412097842e+006 1.005493964530e+006 1.006111287458e+006 1.000103623283e+006 1.000168160611e+006 1.010103017843e+006 1.010391034210e+006 1.000802830000e+006 1.004419087389e+006 1.002854328770e+006 1.009298320974e+006 1.002209499373e+006 1.011844977429e+006 1.006633581476e+006 1.006564139379e+006 1.002089509598e+006 1.001163082423e+006 1.004205905030e+006 1.005003012681e+006 1.008842369300e+006 1.003868507553e+006 1.008418303389e+006 1.011396649537e+006 1.002519876778e+006 1.006356490110e+006 1.009003953871e+006 1.008283619187e+006 1.007784354005e+006 1.012597398944e+006 1.008160232490e+006 1.005221768966e+006 1.008405228905e+006 1.007924897026e+006 1.008515301035e+006 1.001522731231e+006 1.002386603085e+006 1.008625257100e+006 
        </DataArray>
        <DataArray type="Float64" Name="MEAN_PRESSURE" format="ascii">