<?xml version="1.0"?>
<VTKFile type="UnstructuredGrid" version="0.1" byte_order="LittleEndian">
  <UnstructuredGrid>
    <Piece NumberOfPoints="601" NumberOfCells="1114">
      <Points>
        <DataArray type="Float64" NumberOfComponents="3" format="ascii">
          9.510000000000e-002 2.350697990000e-001 0.000000000000e+000
          1.063631230000e-001 2.714774400000e-001 0.000000000000e+000
          6.050000000000e-002 2.846704020000e-001 0.000000000000e+000
          5.720000000000e-002 2.264127830000e-001 0.000000000000e+000
          3.607917390000e-001 5.721080920000e-001 0.000000000000e+000
          3.768558020000e-001 5.525748860000e-001 0.000000000000e+000
          3.789778370000e-001 5.742477180000e-001 0.000000000000e+000
          3.136481190000e-001 5.509609410000e-001 0.000000000000e+000
          3.128188330000e-001 5.700416560000e-001 0.000000000000e+000
          2.881707800000e-001 5.687733920000e-001 0.000000000000e+000
          4.429907380000e-001 6.611719170000e-001 0.000000000000e+000
          4.320814310000e-001 6.642626630000e-001 0.000000000000e+000
          4.324781590000e-001 6.492754290000e-001 0.000000000000e+000
          2.969991220000e-001 5.382558640000e-001 0.000000000000e+000
          3.554110690000e-001 5.560310200000e-001 0.000000000000e+000
          4.214534510000e-001 6.601358340000e-001 0.000000000000e+000
          3.005429170000e-001 4.030809660000e-001 0.000000000000e+000
          3.340207110000e-001 4.132574770000e-001 0.000000000000e+000
          3.087980550000e-001 4.260963220000e-001 0.000000000000e+000
          3.053610030000e-001 3.660000000000e-002 0.000000000000e+000
          3.226354220000e-001 7.560000000000e-002 0.000000000000e+000
          2.746654270000e-001 8.220000000000e-002 0.000000000000e+000
          3.714377890000e-001 4.511813880000e-001 0.000000000000e+000
          3.808127360000e-001 4.661551930000e-001 0.000000000000e+000
          3.485926620000e-001 4.618266300000e-001 0.000000000000e+000
          3.675564050000e-001 4.815381760000e-001 0.000000000000e+000
          3.187177420000e-001 3.868419500000e-001 0.000000000000e+000
          4.410873470000e-001 5.496885300000e-001 0.000000000000e+000
          4.522404520000e-001 5.386010270000e-001 0.000000000000e+000
          4.593241840000e-001 5.538167910000e-001 0.000000000000e+000
          4.014960550000e-001 5.499755270000e-001 0.000000000000e+000
          3.980412370000e-001 5.681797670000e-001 0.000000000000e+000
          4.118653570000e-001 5.818986230000e-001 0.000000000000e+000
          4.290214690000e-001 5.850384460000e-001 0.000000000000e+000
          4.227055460000e-001 5.985109270000e-001 0.000000000000e+000
          4.262176060000e-001 6.109134930000e-001 0.000000000000e+000
          4.083256760000e-001 6.108101250000e-001 0.000000000000e+000
          4.074199840000e-001 1.678065540000e-001 0.000000000000e+000
          4.338525000000e-001 1.367993340000e-001 0.000000000000e+000
          4.419993050000e-001 1.735765240000e-001 0.000000000000e+000
          2.938198300000e-001 3.050000000000e-001 0.000000000000e+000
          3.040856940000e-001 3.370911280000e-001 0.000000000000e+000
          2.728783300000e-001 3.368892400000e-001 0.000000000000e+000
          4.245255210000e-001 6.751478260000e-001 0.000000000000e+000
          4.115146200000e-001 6.706797750000e-001 0.000000000000e+000
          2.172506940000e-001 6.543239900000e-001 0.000000000000e+000
          2.369118240000e-001 6.316770480000e-001 0.000000000000e+000
          2.468783150000e-001 6.519368170000e-001 0.000000000000e+000
          2.564526880000e-001 4.120000000000e-002 0.000000000000e+000
          3.448377420000e-001 6.129073000000e-001 0.000000000000e+000
          3.251379980000e-001 6.268927700000e-001 0.000000000000e+000
          3.273312140000e-001 5.994122080000e-001 0.000000000000e+000
          4.750000000000e-001 3.100000000000e-001 0.000000000000e+000
          4.622391060000e-001 3.191759170000e-001 0.000000000000e+000
          4.632789630000e-001 3.041741210000e-001 0.000000000000e+000
          1.686277520000e-001 5.768153050000e-001 0.000000000000e+000
          1.600733810000e-001 6.057946050000e-001 0.000000000000e+000
          1.336495140000e-001 5.702660460000e-001 0.000000000000e+000
          2.648985480000e-001 2.964243830000e-001 0.000000000000e+000
          4.750000000000e-001 6.810086020000e-001 0.000000000000e+000
          4.639688660000e-001 6.874614690000e-001 0.000000000000e+000
          4.675279960000e-001 6.755881310000e-001 0.000000000000e+000
          1.561569900000e-001 4.415648520000e-001 0.000000000000e+000
          1.171065000000e-001 4.689182860000e-001 0.000000000000e+000
          1.132137760000e-001 4.334105240000e-001 0.000000000000e+000
          4.561931150000e-001 6.630934020000e-001 0.000000000000e+000
          4.518916820000e-001 6.720976590000e-001 0.000000000000e+000
          4.522697350000e-001 6.939175990000e-001 0.000000000000e+000
          4.419733660000e-001 7.008709150000e-001 0.000000000000e+000
          4.414427990000e-001 6.880619320000e-001 0.000000000000e+000
          3.033683560000e-001 5.140865850000e-001 0.000000000000e+000
          2.832124480000e-001 4.946651860000e-001 0.000000000000e+000
          3.072265520000e-001 4.897188920000e-001 0.000000000000e+000
          4.221152260000e-001 2.910297120000e-001 0.000000000000e+000
          4.412966690000e-001 3.014644090000e-001 0.000000000000e+000
          4.299153840000e-001 3.056276890000e-001 0.000000000000e+000
          4.222588150000e-001 2.283775240000e-001 0.000000000000e+000
          4.357605810000e-001 2.536862780000e-001 0.000000000000e+000
          4.167418710000e-001 2.567880820000e-001 0.000000000000e+000
          1.638570440000e-001 1.794837980000e-001 0.000000000000e+000
          1.278151710000e-001 1.656272250000e-001 0.000000000000e+000
          1.617419920000e-001 1.377643790000e-001 0.000000000000e+000
          2.790434020000e-001 5.221415640000e-001 0.000000000000e+000
          1.305952380000e-001 4.029576320000e-001 0.000000000000e+000
          4.451347220000e-001 6.463338270000e-001 0.000000000000e+000
          4.413636270000e-001 6.322598450000e-001 0.000000000000e+000
          0.000000000000e+000 3.322666670000e-001 0.000000000000e+000
          4.030000000000e-002 3.241083040000e-001 0.000000000000e+000
          4.880000000000e-002 3.732204480000e-001 0.000000000000e+000
          4.096990520000e-001 5.970059090000e-001 0.000000000000e+000
          4.359622120000e-001 5.348093080000e-001 0.000000000000e+000
          8.634709500000e-002 1.861646220000e-001 0.000000000000e+000
          3.820000000000e-002 1.828048070000e-001 0.000000000000e+000
          1.912784940000e-001 1.603665230000e-001 0.000000000000e+000
          4.750000000000e-001 4.036036940000e-001 0.000000000000e+000
          4.642303300000e-001 4.105791900000e-001 0.000000000000e+000
          4.598121640000e-001 3.927740700000e-001 0.000000000000e+000
          2.401182360000e-001 6.738008570000e-001 0.000000000000e+000
          4.389592840000e-001 6.755823070000e-001 0.000000000000e+000
          4.750000000000e-001 3.296588890000e-001 0.000000000000e+000
          4.476987140000e-001 5.239335440000e-001 0.000000000000e+000
          0.000000000000e+000 3.797333330000e-001 0.000000000000e+000
          4.375000000000e-001 7.120000000000e-001 0.000000000000e+000
          4.475000000000e-001 7.120000000000e-001 0.000000000000e+000
          3.486106110000e-001 2.026073050000e-001 0.000000000000e+000
          3.165227960000e-001 2.081622480000e-001 0.000000000000e+000
          3.392437750000e-001 1.760088600000e-001 0.000000000000e+000
          3.790988860000e-001 3.453262370000e-001 0.000000000000e+000
          3.655035420000e-001 3.255507720000e-001 0.000000000000e+000
          3.843657540000e-001 3.249187520000e-001 0.000000000000e+000
          3.620975330000e-001 3.560346370000e-001 0.000000000000e+000
          3.512627780000e-001 3.391440580000e-001 0.000000000000e+000
          4.499617050000e-001 5.015835640000e-001 0.000000000000e+000
          4.342350580000e-001 5.014905690000e-001 0.000000000000e+000
          4.442913760000e-001 4.878780550000e-001 0.000000000000e+000
          4.428459580000e-001 5.878250430000e-001 0.000000000000e+000
          4.394391230000e-001 6.029122440000e-001 0.000000000000e+000
          4.750000000000e-001 3.000000000000e-001 0.000000000000e+000
          4.621409500000e-001 2.894091980000e-001 0.000000000000e+000
          2.375000000000e-001 0.000000000000e+000 0.000000000000e+000
          2.850000000000e-001 0.000000000000e+000 0.000000000000e+000
          3.328020250000e-001 1.169160730000e-001 0.000000000000e+000
          2.920212520000e-001 1.188378830000e-001 0.000000000000e+000
          2.291558360000e-001 5.885959210000e-001 0.000000000000e+000
          2.136428270000e-001 5.623651400000e-001 0.000000000000e+000
          2.442775890000e-001 5.609000500000e-001 0.000000000000e+000
          4.064206280000e-001 3.047299530000e-001 0.000000000000e+000
          4.182522270000e-001 3.108563120000e-001 0.000000000000e+000
          4.038465520000e-001 6.986003590000e-001 0.000000000000e+000
          4.028638560000e-001 6.886943560000e-001 0.000000000000e+000
          4.152648770000e-001 6.939116710000e-001 0.000000000000e+000
          3.503991620000e-001 3.921412100000e-001 0.000000000000e+000
          4.163989710000e-001 4.975390480000e-001 0.000000000000e+000
          4.089959850000e-001 4.792894720000e-001 0.000000000000e+000
          4.297013580000e-001 4.845435160000e-001 0.000000000000e+000
          1.264745580000e-001 6.127624150000e-001 0.000000000000e+000
          3.453115380000e-001 3.078956290000e-001 0.000000000000e+000
          3.197761870000e-001 5.295124480000e-001 0.000000000000e+000
          3.558901070000e-001 5.414409190000e-001 0.000000000000e+000
[...]
      <PointData Scalars="LIQUID_PRESSURE">
        <DataArray type="Float64" Name="LIQUID_PRESSURE" format="ascii">
          1.009344068886e+006 1.008630413911e+006 1.008371771214e+006 1.009513743027e+006 1.002738151879e+006 1.003121029704e+006 1.002696299237e+006 1.003152423185e+006 1.002778429195e+006 1.002803178813e+006 1.000993759502e+006 1.000933128878e+006 1.001226650317e+006 1.003401389103e+006 1.003053216938e+006 1.001013835215e+006 1.006050930749e+006 1.005851501081e+006 1.005599820839e+006 1.013248879052e+006 1.012467918939e+006 1.012338257802e+006 1.005108232887e+006 1.004814765204e+006 1.004899553736e+006 1.004513245205e+006 1.006369247824e+006 1.003177752062e+006 1.003395047335e+006 1.003096883276e+006 1.003172044049e+006 1.002815282501e+006 1.002546492346e+006 1.002485027093e+006 1.002221041609e+006 1.001978066420e+006 1.001979984782e+006 1.010662645508e+006 1.011270530116e+006 1.010549501152e+006 1.007973430885e+006 1.007344405331e+006 1.007348343630e+006 1.000719862789e+006 1.000807079536e+006 1.001126212679e+006 1.001569977744e+006 1.001173178637e+006 1.013157601823e+006 1.001938455213e+006 1.001664158001e+006 1.002202838382e+006 1.007875303010e+006 1.007695501849e+006 1.007989524036e+006 1.002645134714e+006 1.002076978442e+006 1.002773451144e+006 1.008141513528e+006 1.000606276957e+006 1.000482466819e+006 1.000711604613e+006 1.005296383990e+006 1.004760133401e+006 1.005456177291e+006 1.000956206941e+006 1.000779899491e+006 1.000359507656e+006 1.000223483864e+006 1.000468450309e+006 1.003875143572e+006 1.004255764890e+006 1.004352774831e+006 1.008247232096e+006 1.008042681030e+006 1.007961093590e+006 1.009475287207e+006 1.008979180812e+006 1.008918408865e+006 1.010433718850e+006 1.010705308088e+006 1.011251614504e+006 1.003717187044e+006 1.006053145675e+006 1.001284335306e+006 1.001559972062e+006 1.007438777031e+006 1.007598705929e+006 1.006636007045e+006 1.002250468401e+006 1.003469332387e+006 1.010302717282e+006 1.010368533261e+006 1.010808476276e+006 1.006040786085e+006 1.005904070747e+006 1.006253039466e+006 1.000741918242e+006 1.000711537021e+006 1.007490044870e+006 1.003682483092e+006 1.006508329598e+006 1.000000000000e+006 1.000000000000e+006 1.009980513987e+006 1.009871632360e+006 1.010501908157e+006 1.007183010943e+006 1.007570623441e+006 1.007583008682e+006 1.006973117897e+006 1.007304182659e+006 1.004120492822e+006 1.004122301981e+006 1.004389091873e+006 1.002430479090e+006 1.002134878822e+006 1.008071305018e+006 1.008278939125e+006 1.013879844935e+006 1.013878358776e+006 1.011660515636e+006 1.011623018705e+006 1.002414372990e+006 1.002928523726e+006 1.002957341079e+006 1.007978711729e+006 1.007858621925e+006 1.000284111538e+006 1.000458725544e+006 1.000363833471e+006 1.006265405094e+006 1.004199723873e+006 1.004557381839e+006 1.004454431847e+006 1.001940190927e+006 1.007916682115e+006 1.003572841074e+006 1.003339168440e+006 1.003528924575e+006 1.004119048639e+006 1.003935456412e+006 1.004300120900e+006 1.013890528745e+006 1.012921135335e+006 1.013219401497e+006 1.005535726713e+006 1.005224551563e+006 1.005240884628e+006 1.000737726878e+006 1.000980437274e+006 1.001153436381e+006 1.003245943376e+006 1.006215257522e+006 1.006468460302e+006 1.006092808942e+006 1.001776379793e+006 1.002553370865e+006 1.003161241215e+006 1.004753913943e+006 1.011160615304e+006 1.012029043556e+006 1.011226193328e+006 1.000580445143e+006 1.001095654164e+006 1.001259060263e+006 1.001221383569e+006 1.001436129336e+006 1.002093674212e+006 1.001829166703e+006 1.005183904139e+006 1.005442958624e+006 1.005572833128e+006 1.000491411683e+006 1.004764777090e+006 1.005284837730e+006 1.006653414899e+006 1.003622285240e+006 1.003276374401e+006 1.008366631885e+006 1.006755957443e+006 1.006036141509e+006 1.004131249426e+006 1.004453897205e+006 1.004028302193e+006 1.002915398139e+006 1.000349517516e+006 1.008447524267e+006 1.001478024288e+006 1.008369199087e+006 1.000406610781e+006 1.004647379419e+006 1.005278294538e+006 1.004314759973e+006 1.011596533811e+006 1.010962151722e+006 1.005940240855e+006 1.005585944731e+006 1.004638234552e+006 1.004698969100e+006 1.000202977862e+006 1.001966984424e+006 1.010435891230e+006 1.008406845994e+006 1.008465367613e+006 1.007871736896e+006 1.007607271439e+006 1.007756781486e+006 1.013851658176e+006 1.000649034499e+006 1.009228868921e+006 1.005238032723e+006 1.007114174432e+006 1.007056785252e+006 1.007366097183e+006 1.002033359065e+006 1.001706858204e+006 1.001620034877e+006 1.004963713739e+006 1.007832082745e+006 1.005943515902e+006 1.006763510639e+006 1.002006557475e+006 1.013204251585e+006 1.004615698547e+006 1.008994914218e+006 1.008744563401e+006 1.008496868775e+006 1.000271408753e+006 1.000177001152e+006 1.004585080721e+006 1.004022975300e+006 1.003675910978e+006 1.009272643096e+006 1.008226572856e+006 1.001842905002e+006 1.008183239650e+006 1.000551378100e+006 1.000645017823e+006 1.000326297852e+006 1.000611542431e+006 1.006389763149e+006 1.006627837466e+006 1.000513876249e+006 1.004471839718e+006 1.012013482520e+006 1.003825620855e+006 1.010349624319e+006 1.001286889928e+006 1.002276391940e+006 1.001078163549e+006 1.000573828920e+006 1.009701287180e+006 1.005569612558e+006 1.010944461045e+006 1.007660114464e+006 1.007269240538e+006 1.007166267906e+006 1.006638483625e+006 1.010765877278e+006 1.011107848466e+006 1.005789727333e+006 1.007460527828e+006 1.009883254678e+006 1.009559213021e+006 1.009325436768e+006 1.010874482313e+006 1.010254585921e+006 1.012303010248e+006 1.000103843368e+006 1.000099404587e+006 1.008940975488e+006 1.002522576425e+006 1.012595758003e+006 1.011951420885e+006 1.000894597293e+006 1.011765714626e+006 1.001348906346e+006 1.006800939224e+006 1.002786300723e+006 1.002963957205e+006 1.002137146581e+006 1.007041118037e+006 1.006866332823e+006 1.004510494703e+006 1.004665749723e+006 1.005123159168e+006 1.009206054737e+006 1.012464454551e+006 1.013876682045e+006 1.013232969545e+006 1.006116921039e+006 1.009128811176e+006 1.009832934271e+006 1.009675857808e+006 1.002932075408e+006 1.002766608912e+006 1.006581563950e+006 1.001973973100e+006 1.007447336176e+006 1.007170559174e+006 1.003577884112e+006 1.005577862706e+006 1.002401161221e+006 1.002572251125e+006 1.001670605608e+006 1.011337135736e+006 1.008729677737e+006 1.009360934932e+006 1.008782868955e+006 1.001307994999e+006 1.000908382810e+006 1.004121792140e+006 1.001856365697e+006 1.002367819459e+006 1.002136256295e+006 1.003682444583e+006 1.003271302826e+006 1.003260138018e+006 1.003379921532e+006 1.006358185108e+006 1.012091053832e+006 1.001026584917e+006 1.000913862435e+006 1.008216443879e+006 1.000054568355e+006 1.000765616067e+006 1.000074964506e+006 1.002558063152e+006 1.012197197824e+006 1.006627961973e+006 1.001211967701e+006 1.000631985546e+006 1.005209858729e+006 1.002376371066e+006 1.002989969669e+006 1.004242529021e+006 1.004350423692e+006 1.005745730330e+006 1.002987739847e+006 1.006643487609e+006 1.005877654465e+006 1.005889821499e+006 1.003930494355e+006 1.006675414996e+006 1.005204639080e+006 1.004862151085e+006 1.003383581480e+006 1.009189626295e+006 1.001616938706e+006 1.003716889472e+006 1.001327616509e+006 1.001436610319e+006 1.001180774429e+006 1.011141484750e+006 1.007975388330e+006 1.008415930017e+006 1.001765406906e+006 1.007639798483e+006 1.000672428807e+006 1.001113923394e+006 1.001450367193e+006 1.010678515919e+006 1.011422252199e+006 1.000299179104e+006 1.003503775930e+006 1.003956719507e+006 1.003458171155e+006 1.012934984886e+006 1.003749488731e+006 1.005049155342e+006 1.005559557711e+006 1.007888095335e+006 1.003972720098e+006 1.001311678861e+006 1.001978679675e+006 1.002336376828e+006 1.002411700937e+006 1.002691761692e+006 1.005128082871e+006 1.001487992178e+006 1.005988799831e+006 1.007313093142e+006 1.011906639947e+006 1.004046408519e+006 1.003539374879e+006 1.003608165391e+006 1.013349696340e+006 1.006258947973e+006 1.000920017403e+006 1.005698894589e+006 1.000172856026e+006 1.012576800454e+006 1.007092593510e+006 1.001731418637e+006 1.003488212552e+006 1.003903324813e+006 1.001963301232e+006 1.001722695164e+006 1.001846423120e+006 1.012534361732e+006 1.012069865494e+006 1.004813958356e+006 1.003303885757e+006 1.010230097588e+006 1.001328520540e+006 1.003018553722e+006 1.009589239221e+006 1.002930931769e+006 1.006634667085e+006 1.013322055221e+006 1.009311620395e+006 1.009017686933e+006 1.001750954914e+006 1.003689326828e+006 1.002406504647e+006 1.006895655243e+006 1.006747487077e+006 1.002785967693e+006 1.000918373488e+006 1.005647282480e+006 1.001474013891e+006 1.000912234100e+006 1.000385413729e+006 1.004214734602e+006 1.008515598523e+006 1.008831936221e+006 1.001414529231e+006 1.007349464698e+006 1.005894085105e+006 1.000095815019e+006 1.000089922384e+006 1.007694786032e+006 1.006612882119e+006 1.001001857925e+006 1.000091318084e+006 1.000639494953e+006 1.008054116724e+006 1.007403693040e+006 1.007516611167e+006 1.011822716787e+006 1.012521644314e+006 1.010029667870e+006 1.005368227972e+006 1.005044236085e+006 1.001225970883e+006 1.000556533628e+006 1.000968747919e+006 1.013887097598e+006 1.010204520648e+006 1.002591961098e+006 1.001625174043e+006 1.001179527401e+006 1.002462808208e+006 1.002584451612e+006 1.013236571592e+006 1.006100273835e+006 1.003941090159e+006 1.009856994159e+006 1.002075918441e+006 1.005524110397e+006 1.013866495066e+006 1.006550219611e+006 1.003804149422e+006 1.005467524454e+006 1.000933001065e+006 1.000662724878e+006 1.008003513846e+006 1.011007627340e+006 1.000338773725e+006 1.000399816391e+006 1.000518624422e+006 1.009460052790e+006 1.009979992773e+006 1.009237808417e+006 1.008589787400e+006 1.000457225087e+006 1.008652322503e+006 1.008616894183e+006 1.004666502610e+006 1.004720515344e+006 1.012310569184e+006 1.003988020101e+006 1.009491464838e+006 1.004469051067e+006 1.008859802973e+006 1.002722017099e+006 1.011108525529e+006 1.000755994578e+006 1.002279406341e+006 1.009685202543e+006 1.000105379678e+006 1.004922602782e+006 1.000083896427e+006 1.007499906111e+006 1.000100115647e+006 1.001364267785e+006 1.000084986327e+006 1.007343103717e+006 1.000945594437e+006 1.002674134738e+006 1.013881283173e+006 1.013100889488e+006 1.013315494286e+006 1.011498389096e+006 1.004963474981e+006 1.006688048392e+006 1.001663738868e+006 1.001283617360e+006 1.000104346351e+006 1.000093020332e+006 1.000306594676e+006 1.004088153268e+006 1.003688792115e+006 1.001643006770e+006 1.000343800424e+006 1.006845075623e+006 1.000106852190e+006 1.000105815939e+006 1.000190969028e+006 1.009166588801e+006 1.000233320639e+006 1.000105610287e+006 1.000223625510e+006 1.001622188915e+006 1.009799595619e+006 1.002255831970e+006 1.000231095091e+006 1.000824521555e+006 1.004728170006e+006 1.011822610488e+006 1.013864801761e+006 1.005994870370e+006 1.000088675978e+006 1.012701175103e+006 1.000108205459e+006 1.005700343609e+006 1.000381294204e+006 1.001654551084e+006 1.001521529841e+006 1.000106720563e+006 1.010196767224e+006 1.002052299084e+006 1.001676704330e+006 1.004574002169e+006 1.000106801448e+006 1.000250182740e+006 1.000645559862e+006 1.006200169386e+006 1.006794033267e+006 1.001414754016e+006 1.001035764139e+006 1.000817869631e+006 1.000481848521e+006 1.006981639080e+006 1.007133685415e+006 1.013888734679e+006 1.013027253374e+006 1.013863081233e+006 1.006964225177e+006 1.009806824688e+006 1.000204523387e+006 1.000316109998e+006 1.000445342804e+006 1.000408348156e+006 1.005494853806e+006 1.006112226903e+006 1.000092571649e+006 1.000162353790e+006 1.010104409635e+006 1.010392459445e+006 1.000802951661e+006 1.004419836960e+006 1.002854872135e+006 1.009299596737e+006 1.002209954117e+006 1.011846715434e+006 1.006634624716e+006 1.006565179202e+006 1.002089977918e+006 1.001163423328e+006 1.004206623085e+006 1.005003837789e+006 1.008843613585e+006 1.003869186510e+006 1.008419605613e+006 1.011398133377e+006 1.002520375549e+006 1.006357494447e+006 1.009005210535e+006 1.008284803961e+006 1.007785480594e+006 1.012598676141e+006 1.008161390799e+006 1.005222621937e+006 1.008406422232e+006 1.007926035209e+006 1.008516502323e+006 1.001523028083e+006 1.002387103275e+006 1.008626467209e+006 
        </DataArray>
        <DataArray type="Float64" Name="MEAN_PRESSURE" format="ascii">