<?xml version="1.0"?>
<VTKFile type="UnstructuredGrid" version="0.1" byte_order="LittleEndian">
  <UnstructuredGrid>
    <Piece NumberOfPoints="601" NumberOfCells="1114">
      <Points>
        <DataArray type="Float64" NumberOfComponents="3" format="ascii">
          9.510000000000e-002 2.350697990000e-001 0.000000000000e+000
          1.063631230000e-001 2.714774400000e-001 0.000000000000e+000
          6.050000000000e-002 2.846704020000e-001 0.000000000000e+000
          5.720000000000e-002 2.264127830000e-001 0.000000000000e+000
          3.607917390000e-001 5.721080920000e-001 0.000000000000e+000
          3.768558020000e-001 5.525748860000e-001 0.000000000000e+000
          3.789778370000e-001 5.742477180000e-001 0.000000000000e+000
          3.136481190000e-001 5.509609410000e-001 0.000000000000e+000
          3.128188330000e-001 5.700416560000e-001 0.000000000000e+000
          2.881707800000e-001 5.687733920000e-001 0.000000000000e+000
          4.429907380000e-001 6.611719170000e-001 0.000000000000e+000
          4.320814310000e-001 6.642626630000e-001 0.000000000000e+000
          4.324781590000e-001 6.492754290000e-001 0.000000000000e+000
          2.969991220000e-001 5.382558640000e-001 0.000000000000e+000
          3.554110690000e-001 5.560310200000e-001 0.000000000000e+000
          4.214534510000e-001 6.601358340000e-001 0.000000000000e+000
          3.005429170000e-001 4.030809660000e-001 0.000000000000e+000
          3.340207110000e-001 4.132574770000e-001 0.000000000000e+000
          3.087980550000e-001 4.260963220000e-001 0.000000000000e+000
          3.053610030000e-001 3.660000000000e-002 0.000000000000e+000
          3.226354220000e-001 7.560000000000e-002 0.000000000000e+000
          2.746654270000e-001 8.220000000000e-002 0.000000000000e+000
          3.714377890000e-001 4.511813880000e-001 0.000000000000e+000
          3.808127360000e-001 4.661551930000e-001 0.000000000000e+000
          3.485926620000e-001 4.618266300000e-001 0.000000000000e+000
          3.675564050000e-001 4.815381760000e-001 0.000000000000e+000
          3.187177420000e-001 3.868419500000e-001 0.000000000000e+000
          4.410873470000e-001 5.496885300000e-001 0.000000000000e+000
          4.522404520000e-001 5.386010270000e-001 0.000000000000e+000
          4.593241840000e-001 5.538167910000e-001 0.000000000000e+000
          4.014960550000e-001 5.499755270000e-001 0.000000000000e+000
          3.980412370000e-001 5.681797670000e-001 0.000000000000e+000
          4.118653570000e-001 5.818986230000e-001 0.000000000000e+000
          4.290214690000e-001 5.850384460000e-001 0.000000000000e+000
          4.227055460000e-001 5.985109270000e-001 0.000000000000e+000
          4.262176060000e-001 6.109134930000e-001 0.000000000000e+000
          4.083256760000e-001 6.108101250000e-001 0.000000000000e+000
          4.074199840000e-001 1.678065540000e-001 0.000000000000e+000
          4.338525000000e-001 1.367993340000e-001 0.000000000000e+000
          4.419993050000e-001 1.735765240000e-001 0.000000000000e+000
          2.938198300000e-001 3.050000000000e-001 0.000000000000e+000
          3.040856940000e-001 3.370911280000e-001 0.000000000000e+000
          2.728783300000e-001 3.368892400000e-001 0.000000000000e+000
          4.245255210000e-001 6.751478260000e-001 0.000000000000e+000
          4.115146200000e-001 6.706797750000e-001 0.000000000000e+000
          2.172506940000e-001 6.543239900000e-001 0.000000000000e+000
          2.369118240000e-001 6.316770480000e-001 0.000000000000e+000
          2.468783150000e-001 6.519368170000e-001 0.000000000000e+000
          2.564526880000e-001 4.120000000000e-002 0.000000000000e+000
          3.448377420000e-001 6.129073000000e-001 0.000000000000e+000
          3.251379980000e-001 6.268927700000e-001 0.000000000000e+000
          3.273312140000e-001 5.994122080000e-001 0.000000000000e+000
          4.750000000000e-001 3.100000000000e-001 0.000000000000e+000
          4.622391060000e-001 3.191759170000e-001 0.000000000000e+000
          4.632789630000e-001 3.041741210000e-001 0.000000000000e+000
          1.686277520000e-001 5.768153050000e-001 0.000000000000e+000
          1.600733810000e-001 6.057946050000e-001 0.000000000000e+000
          1.336495140000e-001 5.702660460000e-001 0.000000000000e+000
          2.648985480000e-001 2.964243830000e-001 0.000000000000e+000
          4.750000000000e-001 6.810086020000e-001 0.000000000000e+000
          4.639688660000e-001 6.874614690000e-001 0.000000000000e+000
          4.675279960000e-001 6.755881310000e-001 0.000000000000e+000
          1.561569900000e-001 4.415648520000e-001 0.000000000000e+000
          1.171065000000e-001 4.689182860000e-001 0.000000000000e+000
          1.132137760000e-001 4.334105240000e-001 0.000000000000e+000
          4.561931150000e-001 6.630934020000e-001 0.000000000000e+000
          4.518916820000e-001 6.720976590000e-001 0.000000000000e+000
          4.522697350000e-001 6.939175990000e-001 0.000000000000e+000
          4.419733660000e-001 7.008709150000e-001 0.000000000000e+000
          4.414427990000e-001 6.880619320000e-001 0.000000000000e+000
          3.033683560000e-001 5.140865850000e-001 0.000000000000e+000
          2.832124480000e-001 4.946651860000e-001 0.000000000000e+000
          3.072265520000e-001 4.897188920000e-001 0.000000000000e+000
          4.221152260000e-001 2.910297120000e-001 0.000000000000e+000
          4.412966690000e-001 3.014644090000e-001 0.000000000000e+000
          4.299153840000e-001 3.056276890000e-001 0.000000000000e+000
          4.222588150000e-001 2.283775240000e-001 0.000000000000e+000
          4.357605810000e-001 2.536862780000e-001 0.000000000000e+000
          4.167418710000e-001 2.567880820000e-001 0.000000000000e+000
          1.638570440000e-001 1.794837980000e-001 0.000000000000e+000
          1.278151710000e-001 1.656272250000e-001 0.000000000000e+000
          1.617419920000e-001 1.377643790000e-001 0.000000000000e+000
          2.790434020000e-001 5.221415640000e-001 0.000000000000e+000
          1.305952380000e-001 4.029576320000e-001 0.000000000000e+000
          4.451347220000e-001 6.463338270000e-001 0.000000000000e+000
          4.413636270000e-001 6.322598450000e-001 0.000000000000e+000
          0.000000000000e+000 3.322666670000e-001 0.000000000000e+000
          4.030000000000e-002 3.241083040000e-001 0.000000000000e+000
          4.880000000000e-002 3.732204480000e-001 0.000000000000e+000
          4.096990520000e-001 5.970059090000e-001 0.000000000000e+000
          4.359622120000e-001 5.348093080000e-001 0.000000000000e+000
          8.634709500000e-002 1.861646220000e-001 0.000000000000e+000
          3.820000000000e-002 1.828048070000e-001 0.000000000000e+000
          1.912784940000e-001 1.603665230000e-001 0.000000000000e+000
          4.750000000000e-001 4.036036940000e-001 0.000000000000e+000
          4.642303300000e-001 4.105791900000e-001 0.000000000000e+000
          4.598121640000e-001 3.927740700000e-001 0.000000000000e+000
          2.401182360000e-001 6.738008570000e-001 0.000000000000e+000
          4.389592840000e-001 6.755823070000e-001 0.000000000000e+000
          4.750000000000e-001 3.296588890000e-001 0.000000000000e+000
          4.476987140000e-001 5.239335440000e-001 0.000000000000e+000
          0.000000000000e+000 3.797333330000e-001 0.000000000000e+000
          4.375000000000e-001 7.120000000000e-001 0.000000000000e+000
          4.475000000000e-001 7.120000000000e-001 0.000000000000e+000
          3.486106110000e-001 2.026073050000e-001 0.000000000000e+000
          3.165227960000e-001 2.081622480000e-001 0.000000000000e+000
          3.392437750000e-001 1.760088600000e-001 0.000000000000e+000
          3.790988860000e-001 3.453262370000e-001 0.000000000000e+000
          3.655035420000e-001 3.255507720000e-001 0.000000000000e+000
          3.843657540000e-001 3.249187520000e-001 0.000000000000e+000
          3.620975330000e-001 3.560346370000e-001 0.000000000000e+000
          3.512627780000e-001 3.391440580000e-001 0.000000000000e+000
          4.499617050000e-001 5.015835640000e-001 0.000000000000e+000
          4.342350580000e-001 5.014905690000e-001 0.000000000000e+000
          4.442913760000e-001 4.878780550000e-001 0.000000000000e+000
          4.428459580000e-001 5.878250430000e-001 0.000000000000e+000
          4.394391230000e-001 6.029122440000e-001 0.000000000000e+000
          4.750000000000e-001 3.000000000000e-001 0.000000000000e+000
          4.621409500000e-001 2.894091980000e-001 0.000000000000e+000
          2.375000000000e-001 0.000000000000e+000 0.000000000000e+000
          2.850000000000e-001 0.000000000000e+000 0.000000000000e+000
          3.328020250000e-001 1.169160730000e-001 0.000000000000e+000
          2.920212520000e-001 1.188378830000e-001 0.000000000000e+000
          2.291558360000e-001 5.885959210000e-001 0.000000000000e+000
          2.136428270000e-001 5.623651400000e-001 0.000000000000e+000
          2.442775890000e-001 5.609000500000e-001 0.000000000000e+000
          4.064206280000e-001 3.047299530000e-001 0.000000000000e+000
          4.182522270000e-001 3.108563120000e-001 0.000000000000e+000
          4.038465520000e-001 6.986003590000e-001 0.000000000000e+000
          4.028638560000e-001 6.886943560000e-001 0.000000000000e+000
          4.152648770000e-001 6.939116710000e-001 0.000000000000e+000
          3.503991620000e-001 3.921412100000e-001 0.000000000000e+000
          4.163989710000e-001 4.975390480000e-001 0.000000000000e+000
          4.089959850000e-001 4.792894720000e-001 0.000000000000e+000
          4.297013580000e-001 4.845435160000e-001 0.000000000000e+000
          1.264745580000e-001 6.127624150000e-001 0.000000000000e+000
          3.453115380000e-001 3.078956290000e-001 0.000000000000e+000
          3.197761870000e-001 5.295124480000e-001 0.000000000000e+000
          3.558901070000e-001 5.414409190000e-001 0.000000000000e+000
[...]
      <PointData Scalars="LIQUID_PRESSURE">
        <DataArray type="Float64" Name="LIQUID_PRESSURE" format="ascii">
          1.009353970145e+006 1.008639836694e+006 1.008381050744e+006 1.009523769794e+006 1.002743037619e+006 1.003126176239e+006 1.002701081444e+006 1.003157796269e+006 1.002783530014e+006 1.002808386649e+006 1.000996397084e+006 1.000935754016e+006 1.001229666624e+006 1.003406994086e+006 1.003058376105e+006 1.001016655941e+006 1.006058452279e+006 1.005858843855e+006 1.005607006092e+006 1.013253380434e+006 1.012480419111e+006 1.012351186869e+006 1.005114974453e+006 1.004821267707e+006 1.004906165713e+006 1.004519531407e+006 1.006376984010e+006 1.003182802463e+006 1.003400283103e+006 1.003101841392e+006 1.003177165593e+006 1.002820103251e+006 1.002551024769e+006 1.002489450206e+006 1.002225223838e+006 1.001981987218e+006 1.001983989420e+006 1.010673485790e+006 1.011281607400e+006 1.010560292051e+006 1.007982328901e+006 1.007352853244e+006 1.007356810258e+006 1.000722287088e+006 1.000809805574e+006 1.001130900343e+006 1.001574380560e+006 1.001176850008e+006 1.013161910043e+006 1.001942772530e+006 1.001668441509e+006 1.002207449315e+006 1.007884123035e+006 1.007704187719e+006 1.007998433987e+006 1.002650567031e+006 1.002082141486e+006 1.002779020537e+006 1.008150538792e+006 1.000607560450e+006 1.000480794803e+006 1.000713758169e+006 1.005303551887e+006 1.004766997632e+006 1.005463492769e+006 1.000958740149e+006 1.000782155887e+006 1.000353987317e+006 1.000217561653e+006 1.000469196255e+006 1.003881076873e+006 1.004262018538e+006 1.004359049567e+006 1.008256333912e+006 1.008051632698e+006 1.007969980705e+006 1.009485309318e+006 1.008988849851e+006 1.008928011974e+006 1.010444346857e+006 1.010716139770e+006 1.011262585973e+006 1.003723066056e+006 1.006060836951e+006 1.001287374907e+006 1.001563371669e+006 1.007447441540e+006 1.007607470144e+006 1.006644127891e+006 1.002254729674e+006 1.003474650499e+006 1.010313265944e+006 1.010379160241e+006 1.010819346758e+006 1.006048199841e+006 1.005911378226e+006 1.006260619004e+006 1.000749861743e+006 1.000713811304e+006 1.007498574374e+006 1.003687976546e+006 1.006516374524e+006 1.000000000000e+006 1.000000000000e+006 1.009990817479e+006 1.009881847379e+006 1.010512576830e+006 1.007191314904e+006 1.007579216466e+006 1.007591608844e+006 1.006981271528e+006 1.007312583622e+006 1.004126361047e+006 1.004128183269e+006 1.004395188341e+006 1.002434815802e+006 1.002138922152e+006 1.008080276098e+006 1.008288074646e+006 1.013943185381e+006 1.013942548426e+006 1.011671964529e+006 1.011634438601e+006 1.002419520199e+006 1.002934032869e+006 1.002962789786e+006 1.007987607662e+006 1.007867429591e+006 1.000260239844e+006 1.000456130578e+006 1.000352947985e+006 1.006273040512e+006 1.004205688301e+006 1.004563646477e+006 1.004460592661e+006 1.001945459697e+006 1.007925529911e+006 1.003578508719e+006 1.003344554178e+006 1.003534430967e+006 1.004124908377e+006 1.003941162393e+006 1.004306135777e+006 1.013946674848e+006 1.012928469276e+006 1.013219940259e+006 1.005542748830e+006 1.005231323070e+006 1.005247676275e+006 1.000743387344e+006 1.000984275898e+006 1.001157143965e+006 1.003251781175e+006 1.006222830627e+006 1.006476216380e+006 1.006100276452e+006 1.001781135722e+006 1.002558489306e+006 1.003166755136e+006 1.004760325726e+006 1.011171604929e+006 1.012040925710e+006 1.011237199617e+006 1.000582131783e+006 1.001098666825e+006 1.001262019594e+006 1.001224315278e+006 1.001439332193e+006 1.002097641614e+006 1.001832854088e+006 1.005190680341e+006 1.005449956771e+006 1.005579915605e+006 1.000495770432e+006 1.004771329585e+006 1.005291761506e+006 1.006661376354e+006 1.003628418715e+006 1.003282318273e+006 1.008375830765e+006 1.006764103360e+006 1.006043788938e+006 1.004137224687e+006 1.004460104895e+006 1.004034164684e+006 1.002920202427e+006 1.000342855738e+006 1.008456792871e+006 1.001481389767e+006 1.008378504369e+006 1.000399340535e+006 1.004654231191e+006 1.005285536764e+006 1.004321404479e+006 1.011607824160e+006 1.010973253605e+006 1.005947578691e+006 1.005593002635e+006 1.004644532704e+006 1.004705324554e+006 1.000171118714e+006 1.001971523556e+006 1.010446538422e+006 1.008416050991e+006 1.008474609375e+006 1.007880558482e+006 1.007615890992e+006 1.007765514701e+006 1.013930286187e+006 1.000650673807e+006 1.009238691295e+006 1.005244891932e+006 1.007122416813e+006 1.007064984039e+006 1.007374532698e+006 1.002037575835e+006 1.001710704441e+006 1.001623895644e+006 1.004970279227e+006 1.007840873955e+006 1.005951168978e+006 1.006771686494e+006 1.002011424969e+006 1.013208180530e+006 1.004622418854e+006 1.009004531331e+006 1.008754010305e+006 1.008506133521e+006 1.000251762037e+006 1.000158786823e+006 1.004591874578e+006 1.004029401687e+006 1.003682131250e+006 1.009282461418e+006 1.008235652585e+006 1.001846644195e+006 1.008192300730e+006 1.000552575661e+006 1.000651187569e+006 1.000311836292e+006 1.000617262665e+006 1.006397447893e+006 1.006635803348e+006 1.000514088587e+006 1.004478130591e+006 1.012025531492e+006 1.003831228586e+006 1.010360276320e+006 1.001290643361e+006 1.002280738637e+006 1.001080866096e+006 1.000575224886e+006 1.009711466229e+006 1.005576725647e+006 1.010955530769e+006 1.007668813760e+006 1.007277697682e+006 1.007174636212e+006 1.006646499040e+006 1.010776672275e+006 1.011118737784e+006 1.005796952786e+006 1.007469048966e+006 1.009893585115e+006 1.009569373504e+006 1.009335384035e+006 1.010885417858e+006 1.010265078290e+006 1.012316003136e+006 1.000046368067e+006 1.000040514891e+006 1.008950666885e+006 1.002528064483e+006 1.012607625978e+006 1.011963352245e+006 1.000898530840e+006 1.011777358000e+006 1.001352984634e+006 1.006808941348e+006 1.002792148634e+006 1.002969788875e+006 1.002142327899e+006 1.007049331261e+006 1.006874430888e+006 1.004517008348e+006 1.004672414852e+006 1.005130086744e+006 1.009215836263e+006 1.012476931227e+006 1.013941168110e+006 1.013238808187e+006 1.006124400242e+006 1.009138547557e+006 1.009843127264e+006 1.009685948983e+006 1.002936952274e+006 1.002771298281e+006 1.006589412092e+006 1.001978061671e+006 1.007455833579e+006 1.007178845505e+006 1.003583729769e+006 1.005585304167e+006 1.002406026736e+006 1.002577147841e+006 1.001674316544e+006 1.011348274214e+006 1.008739110799e+006 1.009370805103e+006 1.008792334886e+006 1.001312134629e+006 1.000913172115e+006 1.004128004080e+006 1.001861061392e+006 1.002372068609e+006 1.002140257013e+006 1.003687970700e+006 1.003276468311e+006 1.003265241974e+006 1.003385136556e+006 1.006365848615e+006 1.012103132808e+006 1.001030080772e+006 1.000917353660e+006 1.008225508407e+006 1.000016395041e+006 1.000778822227e+006 1.000024163678e+006 1.002562674752e+006 1.012209642504e+006 1.006635855048e+006 1.001215763393e+006 1.000639216452e+006 1.005216893886e+006 1.002381580846e+006 1.002995590439e+006 1.004248547269e+006 1.004356659893e+006 1.005752929140e+006 1.002992590788e+006 1.006651412118e+006 1.005884965644e+006 1.005897160452e+006 1.003936205395e+006 1.006683480542e+006 1.005211814200e+006 1.004868629476e+006 1.003389357622e+006 1.009199378107e+006 1.001620368441e+006 1.003723137514e+006 1.001331223119e+006 1.001440167574e+006 1.001184106695e+006 1.011152467839e+006 1.007984278939e+006 1.008425144868e+006 1.001769485596e+006 1.007648441699e+006 1.000676232165e+006 1.001116705914e+006 1.001454242606e+006 1.010689298236e+006 1.011433346404e+006 1.000279214325e+006 1.003509705674e+006 1.003962997520e+006 1.003463570302e+006 1.012941046999e+006 1.003755149574e+006 1.005055983835e+006 1.005566748832e+006 1.007896920777e+006 1.003978894892e+006 1.001316286908e+006 1.001983867724e+006 1.002340586777e+006 1.002416230846e+006 1.002697455853e+006 1.005134930110e+006 1.001491249691e+006 1.005996502464e+006 1.007321488640e+006 1.011918301819e+006 1.004052687851e+006 1.003544731159e+006 1.003613585358e+006 1.013358217558e+006 1.006266564864e+006 1.000928210858e+006 1.005706220731e+006 1.000155616299e+006 1.012589305752e+006 1.007100895379e+006 1.001735096603e+006 1.003493594425e+006 1.003909058193e+006 1.001967110108e+006 1.001726232101e+006 1.001850107692e+006 1.012546832559e+006 1.012082126521e+006 1.004820441474e+006 1.003309303450e+006 1.010240619139e+006 1.001332643188e+006 1.003023478987e+006 1.009599272738e+006 1.002936059950e+006 1.006642542636e+006 1.013328920656e+006 1.009321585571e+006 1.009027406131e+006 1.001755961738e+006 1.003694903950e+006 1.002411106207e+006 1.006903731757e+006 1.006755447804e+006 1.002790636151e+006 1.000920856068e+006 1.005654604040e+006 1.001477740592e+006 1.000919986367e+006 1.000379640261e+006 1.004220804456e+006 1.008524895694e+006 1.008841458980e+006 1.001417721123e+006 1.007358046259e+006 1.005901442626e+006 1.000038012696e+006 1.000032557709e+006 1.007703469210e+006 1.006620857915e+006 1.001005060952e+006 1.000033915990e+006 1.000651365992e+006 1.008063130856e+006 1.007412261493e+006 1.007525280645e+006 1.011834239853e+006 1.012533707726e+006 1.010040135509e+006 1.005375112102e+006 1.005050860568e+006 1.001230525294e+006 1.000564683981e+006 1.000975580317e+006 1.013945381395e+006 1.010215022031e+006 1.002596803118e+006 1.001629285354e+006 1.001183049190e+006 1.002467146248e+006 1.002588915106e+006 1.013240860689e+006 1.006107856359e+006 1.003946833496e+006 1.009867253255e+006 1.002080265041e+006 1.005531389445e+006 1.013936645494e+006 1.006558271222e+006 1.003809762017e+006 1.005474511581e+006 1.000935956186e+006 1.000665951821e+006 1.008012522596e+006 1.011018482631e+006 1.000325571949e+006 1.000393267541e+006 1.000520223617e+006 1.009469995248e+006 1.009990271184e+006 1.009247596517e+006 1.008599150098e+006 1.000458073546e+006 1.008661742964e+006 1.008626295066e+006 1.004673081660e+006 1.004727082711e+006 1.012323159067e+006 1.003993988716e+006 1.009501459490e+006 1.004475632736e+006 1.008869399259e+006 1.002726613064e+006 1.011119556450e+006 1.000759342569e+006 1.002283576391e+006 1.009695316938e+006 1.000049689070e+006 1.004929158137e+006 1.000053357281e+006 1.007508443220e+006 1.000040762708e+006 1.001367628716e+006 1.000029560123e+006 1.007351523956e+006 1.000948703085e+006 1.002678711158e+006 1.013943108730e+006 1.013108256214e+006 1.013321592153e+006 1.011509520871e+006 1.004970383429e+006 1.006695995900e+006 1.001668081904e+006 1.001286795779e+006 1.000047704988e+006 1.000037280762e+006 1.000286875520e+006 1.004094154380e+006 1.003694484362e+006 1.001647650889e+006 1.000331531965e+006 1.006853126337e+006 1.000053037577e+006 1.000058402131e+006 1.000151602817e+006 1.009176361937e+006 1.000200196184e+006 1.000049446917e+006 1.000187453165e+006 1.001625612090e+006 1.009809756303e+006 1.002260389409e+006 1.000197279938e+006 1.000832488141e+006 1.004734537762e+006 1.011834296665e+006 1.013935664020e+006 1.006002457866e+006 1.000054864636e+006 1.012712459108e+006 1.000054070671e+006 1.005707490739e+006 1.000376613834e+006 1.001658097494e+006 1.001525012766e+006 1.000056323184e+006 1.010207196410e+006 1.002057047498e+006 1.001681177243e+006 1.004580243740e+006 1.000052728822e+006 1.000220816868e+006 1.000652692946e+006 1.006207845291e+006 1.006802037087e+006 1.001419700649e+006 1.001038403784e+006 1.000820233473e+006 1.000484423407e+006 1.006989782814e+006 1.007141946374e+006 1.013945840174e+006 1.013035331996e+006 1.013934971506e+006 1.006972361380e+006 1.009817159154e+006 1.000165244571e+006 1.000298110600e+006 1.000443493000e+006 1.000402711271e+006 1.005501851464e+006 1.006119864208e+006 1.000034875139e+006 1.000127243087e+006 1.010114783761e+006 1.010403066980e+006 1.000805219542e+006 1.004425950025e+006 1.002859598973e+006 1.009309564530e+006 1.002214030513e+006 1.011858517096e+006 1.006642503151e+006 1.006572999703e+006 1.002094680457e+006 1.001166613806e+006 1.004213111640e+006 1.005010445124e+006 1.008853132929e+006 1.003874981493e+006 1.008428849434e+006 1.011409265583e+006 1.002524786789e+006 1.006365161397e+006 1.009014849213e+006 1.008293937883e+006 1.007794280474e+006 1.012610528877e+006 1.008170491750e+006 1.005229409877e+006 1.008415650848e+006 1.007934946815e+006 1.008525818272e+006 1.001527257504e+006 1.002392050776e+006 1.008635870937e+006 
        </DataArray>
        <DataArray type="Float64" Name="MEAN_PRESSURE" format="ascii">