<?xml version="1.0"?>
<VTKFile type="UnstructuredGrid" version="0.1" byte_order="LittleEndian">
  <UnstructuredGrid>
    <Piece NumberOfPoints="601" NumberOfCells="1114">
      <Points>
        <DataArray type="Float64" NumberOfComponents="3" format="ascii">
          9.510000000000e-002 2.350697990000e-001 0.000000000000e+000
          1.063631230000e-001 2.714774400000e-001 0.000000000000e+000
          6.050000000000e-002 2.846704020000e-001 0.000000000000e+000
          5.720000000000e-002 2.264127830000e-001 0.000000000000e+000
          3.607917390000e-001 5.721080920000e-001 0.000000000000e+000
          3.768558020000e-001 5.525748860000e-001 0.000000000000e+000
          3.789778370000e-001 5.742477180000e-001 0.000000000000e+000
          3.136481190000e-001 5.509609410000e-001 0.000000000000e+000
          3.128188330000e-001 5.700416560000e-001 0.000000000000e+000
          2.881707800000e-001 5.687733920000e-001 0.000000000000e+000
          4.429907380000e-001 6.611719170000e-001 0.000000000000e+000
          4.320814310000e-001 6.642626630000e-001 0.000000000000e+000
          4.324781590000e-001 6.492754290000e-001 0.000000000000e+000
          2.969991220000e-001 5.382558640000e-001 0.000000000000e+000
          3.554110690000e-001 5.560310200000e-001 0.000000000000e+000
          4.214534510000e-001 6.601358340000e-001 0.000000000000e+000
          3.005429170000e-001 4.030809660000e-001 0.000000000000e+000
          3.340207110000e-001 4.132574770000e-001 0.000000000000e+000
          3.087980550000e-001 4.260963220000e-001 0.000000000000e+000
          3.053610030000e-001 3.660000000000e-002 0.000000000000e+000
          3.226354220000e-001 7.560000000000e-002 0.000000000000e+000
          2.746654270000e-001 8.220000000000e-002 0.000000000000e+000
          3.714377890000e-001 4.511813880000e-001 0.000000000000e+000
          3.808127360000e-001 4.661551930000e-001 0.000000000000e+000
          3.485926620000e-001 4.618266300000e-001 0.000000000000e+000
          3.675564050000e-001 4.815381760000e-001 0.000000000000e+000
          3.187177420000e-001 3.868419500000e-001 0.000000000000e+000
          4.410873470000e-001 5.496885300000e-001 0.000000000000e+000
          4.522404520000e-001 5.386010270000e-001 0.000000000000e+000
          4.593241840000e-001 5.538167910000e-001 0.000000000000e+000
          4.014960550000e-001 5.499755270000e-001 0.000000000000e+000
          3.980412370000e-001 5.681797670000e-001 0.000000000000e+000
          4.118653570000e-001 5.818986230000e-001 0.000000000000e+000
          4.290214690000e-001 5.850384460000e-001 0.000000000000e+000
          4.227055460000e-001 5.985109270000e-001 0.000000000000e+000
          4.262176060000e-001 6.109134930000e-001 0.000000000000e+000
          4.083256760000e-001 6.108101250000e-001 0.000000000000e+000
          4.074199840000e-001 1.678065540000e-001 0.000000000000e+000
          4.338525000000e-001 1.367993340000e-001 0.000000000000e+000
          4.419993050000e-001 1.735765240000e-001 0.000000000000e+000
          2.938198300000e-001 3.050000000000e-001 0.000000000000e+000
          3.040856940000e-001 3.370911280000e-001 0.000000000000e+000
          2.728783300000e-001 3.368892400000e-001 0.000000000000e+000
          4.245255210000e-001 6.751478260000e-001 0.000000000000e+000
          4.115146200000e-001 6.706797750000e-001 0.000000000000e+000
          2.172506940000e-001 6.543239900000e-001 0.000000000000e+000
          2.369118240000e-001 6.316770480000e-001 0.000000000000e+000
          2.468783150000e-001 6.519368170000e-001 0.000000000000e+000
          2.564526880000e-001 4.120000000000e-002 0.000000000000e+000
          3.448377420000e-001 6.129073000000e-001 0.000000000000e+000
          3.251379980000e-001 6.268927700000e-001 0.000000000000e+000
          3.273312140000e-001 5.994122080000e-001 0.000000000000e+000
          4.750000000000e-001 3.100000000000e-001 0.000000000000e+000
          4.622391060000e-001 3.191759170000e-001 0.000000000000e+000
          4.632789630000e-001 3.041741210000e-001 0.000000000000e+000
          1.686277520000e-001 5.768153050000e-001 0.000000000000e+000
          1.600733810000e-001 6.057946050000e-001 0.000000000000e+000
          1.336495140000e-001 5.702660460000e-001 0.000000000000e+000
          2.648985480000e-001 2.964243830000e-001 0.000000000000e+000
          4.750000000000e-001 6.810086020000e-001 0.000000000000e+000
          4.639688660000e-001 6.874614690000e-001 0.000000000000e+000
          4.675279960000e-001 6.755881310000e-001 0.000000000000e+000
          1.561569900000e-001 4.415648520000e-001 0.000000000000e+000
          1.171065000000e-001 4.689182860000e-001 0.000000000000e+000
          1.132137760000e-001 4.334105240000e-001 0.000000000000e+000
          4.561931150000e-001 6.630934020000e-001 0.000000000000e+000
          4.518916820000e-001 6.720976590000e-001 0.000000000000e+000
          4.522697350000e-001 6.939175990000e-001 0.000000000000e+000
          4.419733660000e-001 7.008709150000e-001 0.000000000000e+000
          4.414427990000e-001 6.880619320000e-001 0.000000000000e+000
          3.033683560000e-001 5.140865850000e-001 0.000000000000e+000
          2.832124480000e-001 4.946651860000e-001 0.000000000000e+000
          3.072265520000e-001 4.897188920000e-001 0.000000000000e+000
          4.221152260000e-001 2.910297120000e-001 0.000000000000e+000
          4.412966690000e-001 3.014644090000e-001 0.000000000000e+000
          4.299153840000e-001 3.056276890000e-001 0.000000000000e+000
          4.222588150000e-001 2.283775240000e-001 0.000000000000e+000
          4.357605810000e-001 2.536862780000e-001 0.000000000000e+000
          4.167418710000e-001 2.567880820000e-001 0.000000000000e+000
          1.638570440000e-001 1.794837980000e-001 0.000000000000e+000
          1.278151710000e-001 1.656272250000e-001 0.000000000000e+000
          1.617419920000e-001 1.377643790000e-001 0.000000000000e+000
          2.790434020000e-001 5.221415640000e-001 0.000000000000e+000
          1.305952380000e-001 4.029576320000e-001 0.000000000000e+000
          4.451347220000e-001 6.463338270000e-001 0.000000000000e+000
          4.413636270000e-001 6.322598450000e-001 0.000000000000e+000
          0.000000000000e+000 3.322666670000e-001 0.000000000000e+000
          4.030000000000e-002 3.241083040000e-001 0.000000000000e+000
          4.880000000000e-002 3.732204480000e-001 0.000000000000e+000
          4.096990520000e-001 5.970059090000e-001 0.000000000000e+000
          4.359622120000e-001 5.348093080000e-001 0.000000000000e+000
          8.634709500000e-002 1.861646220000e-001 0.000000000000e+000
          3.820000000000e-002 1.828048070000e-001 0.000000000000e+000
          1.912784940000e-001 1.603665230000e-001 0.000000000000e+000
          4.750000000000e-001 4.036036940000e-001 0.000000000000e+000
          4.642303300000e-001 4.105791900000e-001 0.000000000000e+000
          4.598121640000e-001 3.927740700000e-001 0.000000000000e+000
          2.401182360000e-001 6.738008570000e-001 0.000000000000e+000
          4.389592840000e-001 6.755823070000e-001 0.000000000000e+000
          4.750000000000e-001 3.296588890000e-001 0.000000000000e+000
          4.476987140000e-001 5.239335440000e-001 0.000000000000e+000
          0.000000000000e+000 3.797333330000e-001 0.000000000000e+000
          4.375000000000e-001 7.120000000000e-001 0.000000000000e+000
          4.475000000000e-001 7.120000000000e-001 0.000000000000e+000
          3.486106110000e-001 2.026073050000e-001 0.000000000000e+000
          3.165227960000e-001 2.081622480000e-001 0.000000000000e+000
          3.392437750000e-001 1.760088600000e-001 0.000000000000e+000
          3.790988860000e-001 3.453262370000e-001 0.000000000000e+000
          3.655035420000e-001 3.255507720000e-001 0.000000000000e+000
          3.843657540000e-001 3.249187520000e-001 0.000000000000e+000
          3.620975330000e-001 3.560346370000e-001 0.000000000000e+000
          3.512627780000e-001 3.391440580000e-001 0.000000000000e+000
          4.499617050000e-001 5.015835640000e-001 0.000000000000e+000
          4.342350580000e-001 5.014905690000e-001 0.000000000000e+000
          4.442913760000e-001 4.878780550000e-001 0.000000000000e+000
          4.428459580000e-001 5.878250430000e-001 0.000000000000e+000
          4.394391230000e-001 6.029122440000e-001 0.000000000000e+000
          4.750000000000e-001 3.000000000000e-001 0.000000000000e+000
          4.621409500000e-001 2.894091980000e-001 0.000000000000e+000
          2.375000000000e-001 0.000000000000e+000 0.000000000000e+000
          2.850000000000e-001 0.000000000000e+000 0.000000000000e+000
          3.328020250000e-001 1.169160730000e-001 0.000000000000e+000
          2.920212520000e-001 1.188378830000e-001 0.000000000000e+000
          2.291558360000e-001 5.885959210000e-001 0.000000000000e+000
          2.136428270000e-001 5.623651400000e-001 0.000000000000e+000
          2.442775890000e-001 5.609000500000e-001 0.000000000000e+000
          4.064206280000e-001 3.047299530000e-001 0.000000000000e+000
          4.182522270000e-001 3.108563120000e-001 0.000000000000e+000
          4.038465520000e-001 6.986003590000e-001 0.000000000000e+000
          4.028638560000e-001 6.886943560000e-001 0.000000000000e+000
          4.152648770000e-001 6.939116710000e-001 0.000000000000e+000
          3.503991620000e-001 3.921412100000e-001 0.000000000000e+000
          4.163989710000e-001 4.975390480000e-001 0.000000000000e+000
          4.089959850000e-001 4.792894720000e-001 0.000000000000e+000
          4.297013580000e-001 4.845435160000e-001 0.000000000000e+000
          1.264745580000e-001 6.127624150000e-001 0.000000000000e+000
          3.453115380000e-001 3.078956290000e-001 0.000000000000e+000
          3.197761870000e-001 5.295124480000e-001 0.000000000000e+000
          3.558901070000e-001 5.414409190000e-001 0.000000000000e+000
[...]
      <PointData Scalars="LIQUID_PRESSURE">
        <DataArray type="Float64" Name="LIQUID_PRESSURE" format="ascii">
          1.009351694665e+006 1.008637674894e+006 1.008378921451e+006 1.009521464869e+006 1.002741898360e+006 1.003124982066e+006 1.002699967096e+006 1.003156543642e+006 1.002782336145e+006 1.002807165260e+006 1.000995751021e+006 1.000935127399e+006 1.001228939547e+006 1.003405688872e+006 1.003057176494e+006 1.001015966930e+006 1.006056740133e+006 1.005857174727e+006 1.005605366433e+006 1.013253684595e+006 1.012477223800e+006 1.012347948429e+006 1.005113437178e+006 1.004819782189e+006 1.004904653225e+006 1.004518090525e+006 1.006375229614e+006 1.003181633886e+006 1.003399074509e+006 1.003100693443e+006 1.003175979211e+006 1.002818982363e+006 1.002549968120e+006 1.002488418401e+006 1.002224244603e+006 1.001981065358e+006 1.001983048900e+006 1.010671123445e+006 1.011279184672e+006 1.010557954552e+006 1.007980324714e+006 1.007350946305e+006 1.007354892447e+006 1.000721744559e+006 1.000809238422e+006 1.001130069407e+006 1.001573239306e+006 1.001176041795e+006 1.013161862413e+006 1.001941756921e+006 1.001667438707e+006 1.002206364335e+006 1.007882168785e+006 1.007702258433e+006 1.007996461362e+006 1.002649271164e+006 1.002080914827e+006 1.002777702153e+006 1.008148499885e+006 1.000606874598e+006 1.000480077903e+006 1.000713244519e+006 1.005301894623e+006 1.004765402717e+006 1.005461799456e+006 1.000958123852e+006 1.000781635522e+006 1.000354535326e+006 1.000218397394e+006 1.000468404429e+006 1.003879702690e+006 1.004260572956e+006 1.004357603144e+006 1.008254319171e+006 1.008049649996e+006 1.007968009158e+006 1.009483118017e+006 1.008986730207e+006 1.008925898950e+006 1.010441907168e+006 1.010713640738e+006 1.011260019708e+006 1.003721699463e+006 1.006059063543e+006 1.001286649283e+006 1.001562565853e+006 1.007445448842e+006 1.007605455564e+006 1.006642254601e+006 1.002253732644e+006 1.003473423470e+006 1.010310835519e+006 1.010376710800e+006 1.010816854095e+006 1.006046528177e+006 1.005909728534e+006 1.006258912897e+006 1.000747944990e+006 1.000713316135e+006 1.007496676020e+006 1.003686711941e+006 1.006514516965e+006 1.000000000000e+006 1.000000000000e+006 1.009988540481e+006 1.009879576959e+006 1.010510224990e+006 1.007189452722e+006 1.007577292598e+006 1.007589687140e+006 1.006979437405e+006 1.007310696423e+006 1.004125015675e+006 1.004126834503e+006 1.004393793838e+006 1.002433803564e+006 1.002137974233e+006 1.008078292653e+006 1.008286058437e+006 1.013926683354e+006 1.013925741822e+006 1.011669518061e+006 1.011632025173e+006 1.002418301587e+006 1.002932729307e+006 1.002961507878e+006 1.007985630571e+006 1.007865471995e+006 1.000265035296e+006 1.000455067580e+006 1.000353880909e+006 1.006271312382e+006 1.004204320683e+006 1.004562214112e+006 1.004459183766e+006 1.001944166162e+006 1.007923549326e+006 1.003577194016e+006 1.003343305484e+006 1.003533157598e+006 1.004123565192e+006 1.003939852157e+006 1.004304759174e+006 1.013932198002e+006 1.012926768887e+006 1.013221756284e+006 1.005541158170e+006 1.005229785504e+006 1.005246133745e+006 1.000742128963e+006 1.000983642724e+006 1.001156241008e+006 1.003250405209e+006 1.006221120751e+006 1.006474470942e+006 1.006098591027e+006 1.001779940507e+006 1.002557276835e+006 1.003165464748e+006 1.004758862809e+006 1.011169037090e+006 1.012038241100e+006 1.011234621664e+006 1.000581228595e+006 1.001097924653e+006 1.001261315060e+006 1.001223618766e+006 1.001438574311e+006 1.002096711327e+006 1.001831985422e+006 1.005189138121e+006 1.005448365337e+006 1.005578308282e+006 1.000492682270e+006 1.004769826128e+006 1.005290180719e+006 1.006659569690e+006 1.003626979419e+006 1.003280913673e+006 1.008373800115e+006 1.006762232463e+006 1.006042029229e+006 1.004135850980e+006 1.004458682939e+006 1.004032816887e+006 1.002919087681e+006 1.000343625426e+006 1.008454751907e+006 1.001480588472e+006 1.008376372307e+006 1.000399296499e+006 1.004652632863e+006 1.005283852757e+006 1.004319852484e+006 1.011605389492e+006 1.010970843567e+006 1.005945922329e+006 1.005591404968e+006 1.004643095382e+006 1.004703874489e+006 1.000181085621e+006 1.001970448639e+006 1.010444177131e+006 1.008413979464e+006 1.008472539969e+006 1.007878601888e+006 1.007613974067e+006 1.007763574647e+006 1.013907823013e+006 1.000650106581e+006 1.009236532645e+006 1.005243327943e+006 1.007120575856e+006 1.007063151351e+006 1.007372652664e+006 1.002036585899e+006 1.001709795938e+006 1.001622985856e+006 1.004968784895e+006 1.007838898329e+006 1.005949399360e+006 1.006769805012e+006 1.002010279082e+006 1.013208480942e+006 1.004620857854e+006 1.009002391320e+006 1.008751913558e+006 1.008504067859e+006 1.000256531897e+006 1.000164467185e+006 1.004590291919e+006 1.004027902366e+006 1.003680669574e+006 1.009280286501e+006 1.008233638088e+006 1.001845762732e+006 1.008190297774e+006 1.000551911282e+006 1.000649299476e+006 1.000313381552e+006 1.000615061696e+006 1.006395720302e+006 1.006633990213e+006 1.000513133104e+006 1.004476686082e+006 1.012023030399e+006 1.003829939696e+006 1.010357975127e+006 1.001289689830e+006 1.002279722485e+006 1.001080213945e+006 1.000574668139e+006 1.009709129566e+006 1.005575107625e+006 1.010953139276e+006 1.007666839348e+006 1.007275766289e+006 1.007172729449e+006 1.006644666183e+006 1.010774250842e+006 1.011116255806e+006 1.005795319024e+006 1.007467132239e+006 1.009891338351e+006 1.009567173307e+006 1.009333215596e+006 1.010883020688e+006 1.010262774843e+006 1.012312763473e+006 1.000065725011e+006 1.000059674736e+006 1.008948446981e+006 1.002526775954e+006 1.012604497246e+006 1.011960865595e+006 1.000897960089e+006 1.011774871601e+006 1.001351951978e+006 1.006807148746e+006 1.002790790157e+006 1.002968422536e+006 1.002141000635e+006 1.007047480662e+006 1.006872600012e+006 1.004515501259e+006 1.004670871957e+006 1.005128492545e+006 1.009213675632e+006 1.012473849578e+006 1.013923840410e+006 1.013238546412e+006 1.006122713746e+006 1.009136320078e+006 1.009840784139e+006 1.009683642693e+006 1.002935820268e+006 1.002770208121e+006 1.006587645800e+006 1.001977103021e+006 1.007453940295e+006 1.007176994443e+006 1.003582365849e+006 1.005583576759e+006 1.002404881719e+006 1.002576000402e+006 1.001673438450e+006 1.011345829103e+006 1.008736984302e+006 1.009368592724e+006 1.008790213254e+006 1.001311024550e+006 1.000912381843e+006 1.004126563449e+006 1.001859936120e+006 1.002371076207e+006 1.002139319718e+006 1.003686697728e+006 1.003275273721e+006 1.003264062357e+006 1.003383932701e+006 1.006364124532e+006 1.012100288393e+006 1.001029397978e+006 1.000916766872e+006 1.008223488127e+006 1.000026571136e+006 1.000774545885e+006 1.000038520546e+006 1.002561599419e+006 1.012206947436e+006 1.006634076349e+006 1.001214901476e+006 1.000636846984e+006 1.005215272093e+006 1.002380353685e+006 1.002994260632e+006 1.004247167056e+006 1.004355224365e+006 1.005751299788e+006 1.002991466387e+006 1.006649621081e+006 1.005883311180e+006 1.005895497206e+006 1.003934893651e+006 1.006681631944e+006 1.005210148785e+006 1.004867154013e+006 1.003388004547e+006 1.009197202345e+006 1.001619558109e+006 1.003721667570e+006 1.001330357010e+006 1.001439328262e+006 1.001183288823e+006 1.011149900194e+006 1.007982298795e+006 1.008423099936e+006 1.001768524046e+006 1.007646518090e+006 1.000675397418e+006 1.001116035985e+006 1.001453327323e+006 1.010686853039e+006 1.011430854202e+006 1.000282522895e+006 1.003508315919e+006 1.003961531105e+006 1.003462322293e+006 1.012939918174e+006 1.003753843954e+006 1.005054415407e+006 1.005565103492e+006 1.007894950046e+006 1.003977457258e+006 1.001315571474e+006 1.001982570349e+006 1.002339603208e+006 1.002415172440e+006 1.002696127389e+006 1.005133361505e+006 1.001490479088e+006 1.005994719194e+006 1.007319614305e+006 1.011915815555e+006 1.004051224319e+006 1.003543496686e+006 1.003612336980e+006 1.013358095132e+006 1.006264843524e+006 1.000926064732e+006 1.005704542051e+006 1.000161041748e+006 1.012585711525e+006 1.007099007619e+006 1.001734226846e+006 1.003492351837e+006 1.003907739524e+006 1.001966215614e+006 1.001725398521e+006 1.001849240728e+006 1.012543487681e+006 1.012079375198e+006 1.004818961587e+006 1.003308045027e+006 1.010238196110e+006 1.001331611445e+006 1.003022337156e+006 1.009597047116e+006 1.002934864332e+006 1.006640775296e+006 1.013328983671e+006 1.009319420695e+006 1.009025282273e+006 1.001754714353e+006 1.003693618017e+006 1.002410030118e+006 1.006901923038e+006 1.006753663782e+006 1.002789551458e+006 1.000920258582e+006 1.005652922459e+006 1.001476747343e+006 1.000918715296e+006 1.000378717818e+006 1.004219408720e+006 1.008522839751e+006 1.008839354957e+006 1.001416964060e+006 1.007356073071e+006 1.005899773006e+006 1.000056276129e+006 1.000050014097e+006 1.007701533594e+006 1.006619038166e+006 1.001004303806e+006 1.000051583842e+006 1.000646846754e+006 1.008061068063e+006 1.007410300191e+006 1.007523291281e+006 1.011831615792e+006 1.012530537033e+006 1.010037869676e+006 1.005373551032e+006 1.005049354262e+006 1.001229647584e+006 1.000561022055e+006 1.000974388175e+006 1.013930325425e+006 1.010212731831e+006 1.002595670824e+006 1.001628318730e+006 1.001182170485e+006 1.002466134446e+006 1.002587875600e+006 1.013241519916e+006 1.006106126914e+006 1.003945513709e+006 1.009865004149e+006 1.002079243271e+006 1.005529712201e+006 1.013917277738e+006 1.006556414656e+006 1.003808471087e+006 1.005472926009e+006 1.000935297561e+006 1.000665168592e+006 1.008010454970e+006 1.011016053804e+006 1.000326766173e+006 1.000392795668e+006 1.000518565306e+006 1.009467737137e+006 1.009987947193e+006 1.009245388395e+006 1.008597085639e+006 1.000455869749e+006 1.008659670901e+006 1.008624228960e+006 1.004671564249e+006 1.004725572054e+006 1.012320390955e+006 1.003992610108e+006 1.009499261558e+006 1.004474103930e+006 1.008867298347e+006 1.002725544525e+006 1.011117118601e+006 1.000758676686e+006 1.002282601131e+006 1.009693086314e+006 1.000068195734e+006 1.004927664050e+006 1.000064424294e+006 1.007506538770e+006 1.000060157502e+006 1.001366828184e+006 1.000045951430e+006 1.007349640945e+006 1.000948002448e+006 1.002677646288e+006 1.013926880054e+006 1.013107068174e+006 1.013322049911e+006 1.011507074302e+006 1.004968785171e+006 1.006694202939e+006 1.001667057549e+006 1.001286032226e+006 1.000066618724e+006 1.000054894165e+006 1.000290278592e+006 1.004092771541e+006 1.003693167900e+006 1.001646516814e+006 1.000332308938e+006 1.006851316758e+006 1.000071255043e+006 1.000074859679e+006 1.000163811882e+006 1.009174119950e+006 1.000208997216e+006 1.000067913400e+006 1.000197263151e+006 1.001624804084e+006 1.009807472637e+006 1.002259319168e+006 1.000206060785e+006 1.000830689598e+006 1.004733085909e+006 1.011831778050e+006 1.013916014445e+006 1.006000715503e+006 1.000067162810e+006 1.012709655263e+006 1.000072040044e+006 1.005705874542e+006 1.000375339250e+006 1.001657257155e+006 1.001524184419e+006 1.000073520758e+006 1.010204822196e+006 1.002055922840e+006 1.001680133737e+006 1.004578818729e+006 1.000070675995e+006 1.000227630682e+006 1.000650391633e+006 1.006206092093e+006 1.006800240750e+006 1.001418795740e+006 1.001037754917e+006 1.000819710428e+006 1.000481993630e+006 1.006987959363e+006 1.007140097622e+006 1.013930948370e+006 1.013033748862e+006 1.013914974493e+006 1.006970536116e+006 1.009814923328e+006 1.000176808213e+006 1.000301550514e+006 1.000441847442e+006 1.000402013871e+006 1.005500264984e+006 1.006118115641e+006 1.000052814992e+006 1.000139166619e+006 1.010112468622e+006 1.010400689811e+006 1.000804685437e+006 1.004424552505e+006 1.002858501678e+006 1.009307288538e+006 1.002213076531e+006 1.011855902969e+006 1.006640734113e+006 1.006571244187e+006 1.002093563058e+006 1.001165836804e+006 1.004211598773e+006 1.005008941109e+006 1.008850975482e+006 1.003873644985e+006 1.008426811745e+006 1.011406680435e+006 1.002523758504e+006 1.006363435535e+006 1.009012653786e+006 1.008291867389e+006 1.007792277728e+006 1.012607479108e+006 1.008168405317e+006 1.005227867038e+006 1.008413551084e+006 1.007932912735e+006 1.008523690943e+006 1.001526169472e+006 1.002390880737e+006 1.008633717420e+006 
        </DataArray>
        <DataArray type="Float64" Name="MEAN_PRESSURE" format="ascii">