<?xml version="1.0"?>
<VTKFile type="UnstructuredGrid" version="0.1" byte_order="LittleEndian">
  <UnstructuredGrid>
    <Piece NumberOfPoints="601" NumberOfCells="1114">
      <Points>
        <DataArray type="Float64" NumberOfComponents="3" format="ascii">
          9.510000000000e-002 2.350697990000e-001 0.000000000000e+000
          1.063631230000e-001 2.714774400000e-001 0.000000000000e+000
          6.050000000000e-002 2.846704020000e-001 0.000000000000e+000
          5.720000000000e-002 2.264127830000e-001 0.000000000000e+000
          3.607917390000e-001 5.721080920000e-001 0.000000000000e+000
          3.768558020000e-001 5.525748860000e-001 0.000000000000e+000
          3.789778370000e-001 5.742477180000e-001 0.000000000000e+000
          3.136481190000e-001 5.509609410000e-001 0.000000000000e+000
          3.128188330000e-001 5.700416560000e-001 0.000000000000e+000
          2.881707800000e-001 5.687733920000e-001 0.000000000000e+000
          4.429907380000e-001 6.611719170000e-001 0.000000000000e+000
          4.320814310000e-001 6.642626630000e-001 0.000000000000e+000
          4.324781590000e-001 6.492754290000e-001 0.000000000000e+000
          2.969991220000e-001 5.382558640000e-001 0.000000000000e+000
          3.554110690000e-001 5.560310200000e-001 0.000000000000e+000
          4.214534510000e-001 6.601358340000e-001 0.000000000000e+000
          3.005429170000e-001 4.030809660000e-001 0.000000000000e+000
          3.340207110000e-001 4.132574770000e-001 0.000000000000e+000
          3.087980550000e-001 4.260963220000e-001 0.000000000000e+000
          3.053610030000e-001 3.660000000000e-002 0.000000000000e+000
          3.226354220000e-001 7.560000000000e-002 0.000000000000e+000
          2.746654270000e-001 8.220000000000e-002 0.000000000000e+000
          3.714377890000e-001 4.511813880000e-001 0.000000000000e+000
          3.808127360000e-001 4.661551930000e-001 0.000000000000e+000
          3.485926620000e-001 4.618266300000e-001 0.000000000000e+000
          3.675564050000e-001 4.815381760000e-001 0.000000000000e+000
          3.187177420000e-001 3.868419500000e-001 0.000000000000e+000
          4.410873470000e-001 5.496885300000e-001 0.000000000000e+000
          4.522404520000e-001 5.386010270000e-001 0.000000000000e+000
          4.593241840000e-001 5.538167910000e-001 0.000000000000e+000
          4.014960550000e-001 5.499755270000e-001 0.000000000000e+000
          3.980412370000e-001 5.681797670000e-001 0.000000000000e+000
          4.118653570000e-001 5.818986230000e-001 0.000000000000e+000
          4.290214690000e-001 5.850384460000e-001 0.000000000000e+000
          4.227055460000e-001 5.985109270000e-001 0.000000000000e+000
          4.262176060000e-001 6.109134930000e-001 0.000000000000e+000
          4.083256760000e-001 6.108101250000e-001 0.000000000000e+000
          4.074199840000e-001 1.678065540000e-001 0.000000000000e+000
          4.338525000000e-001 1.367993340000e-001 0.000000000000e+000
          4.419993050000e-001 1.735765240000e-001 0.000000000000e+000
          2.938198300000e-001 3.050000000000e-001 0.000000000000e+000
          3.040856940000e-001 3.370911280000e-001 0.000000000000e+000
          2.728783300000e-001 3.368892400000e-001 0.000000000000e+000
          4.245255210000e-001 6.751478260000e-001 0.000000000000e+000
          4.115146200000e-001 6.706797750000e-001 0.000000000000e+000
          2.172506940000e-001 6.543239900000e-001 0.000000000000e+000
          2.369118240000e-001 6.316770480000e-001 0.000000000000e+000
          2.468783150000e-001 6.519368170000e-001 0.000000000000e+000
          2.564526880000e-001 4.120000000000e-002 0.000000000000e+000
          3.448377420000e-001 6.129073000000e-001 0.000000000000e+000
          3.251379980000e-001 6.268927700000e-001 0.000000000000e+000
          3.273312140000e-001 5.994122080000e-001 0.000000000000e+000
          4.750000000000e-001 3.100000000000e-001 0.000000000000e+000
          4.622391060000e-001 3.191759170000e-001 0.000000000000e+000
          4.632789630000e-001 3.041741210000e-001 0.000000000000e+000
          1.686277520000e-001 5.768153050000e-001 0.000000000000e+000
          1.600733810000e-001 6.057946050000e-001 0.000000000000e+000
          1.336495140000e-001 5.702660460000e-001 0.000000000000e+000
          2.648985480000e-001 2.964243830000e-001 0.000000000000e+000
          4.750000000000e-001 6.810086020000e-001 0.000000000000e+000
          4.639688660000e-001 6.874614690000e-001 0.000000000000e+000
          4.675279960000e-001 6.755881310000e-001 0.000000000000e+000
          1.561569900000e-001 4.415648520000e-001 0.000000000000e+000
          1.171065000000e-001 4.689182860000e-001 0.000000000000e+000
          1.132137760000e-001 4.334105240000e-001 0.000000000000e+000
          4.561931150000e-001 6.630934020000e-001 0.000000000000e+000
          4.518916820000e-001 6.720976590000e-001 0.000000000000e+000
          4.522697350000e-001 6.939175990000e-001 0.000000000000e+000
          4.419733660000e-001 7.008709150000e-001 0.000000000000e+000
          4.414427990000e-001 6.880619320000e-001 0.000000000000e+000
          3.033683560000e-001 5.140865850000e-001 0.000000000000e+000
          2.832124480000e-001 4.946651860000e-001 0.000000000000e+000
          3.072265520000e-001 4.897188920000e-001 0.000000000000e+000
          4.221152260000e-001 2.910297120000e-001 0.000000000000e+000
          4.412966690000e-001 3.014644090000e-001 0.000000000000e+000
          4.299153840000e-001 3.056276890000e-001 0.000000000000e+000
          4.222588150000e-001 2.283775240000e-001 0.000000000000e+000
          4.357605810000e-001 2.536862780000e-001 0.000000000000e+000
          4.167418710000e-001 2.567880820000e-001 0.000000000000e+000
          1.638570440000e-001 1.794837980000e-001 0.000000000000e+000
          1.278151710000e-001 1.656272250000e-001 0.000000000000e+000
          1.617419920000e-001 1.377643790000e-001 0.000000000000e+000
          2.790434020000e-001 5.221415640000e-001 0.000000000000e+000
          1.305952380000e-001 4.029576320000e-001 0.000000000000e+000
          4.451347220000e-001 6.463338270000e-001 0.000000000000e+000
          4.413636270000e-001 6.322598450000e-001 0.000000000000e+000
          0.000000000000e+000 3.322666670000e-001 0.000000000000e+000
          4.030000000000e-002 3.241083040000e-001 0.000000000000e+000
          4.880000000000e-002 3.732204480000e-001 0.000000000000e+000
          4.096990520000e-001 5.970059090000e-001 0.000000000000e+000
          4.359622120000e-001 5.348093080000e-001 0.000000000000e+000
          8.634709500000e-002 1.861646220000e-001 0.000000000000e+000
          3.820000000000e-002 1.828048070000e-001 0.000000000000e+000
          1.912784940000e-001 1.603665230000e-001 0.000000000000e+000
          4.750000000000e-001 4.036036940000e-001 0.000000000000e+000
          4.642303300000e-001 4.105791900000e-001 0.000000000000e+000
          4.598121640000e-001 3.927740700000e-001 0.000000000000e+000
          2.401182360000e-001 6.738008570000e-001 0.000000000000e+000
          4.389592840000e-001 6.755823070000e-001 0.000000000000e+000
          4.750000000000e-001 3.296588890000e-001 0.000000000000e+000
          4.476987140000e-001 5.239335440000e-001 0.000000000000e+000
          0.000000000000e+000 3.797333330000e-001 0.000000000000e+000
          4.375000000000e-001 7.120000000000e-001 0.000000000000e+000
          4.475000000000e-001 7.120000000000e-001 0.000000000000e+000
          3.486106110000e-001 2.026073050000e-001 0.000000000000e+000
          3.165227960000e-001 2.081622480000e-001 0.000000000000e+000
          3.392437750000e-001 1.760088600000e-001 0.000000000000e+000
          3.790988860000e-001 3.453262370000e-001 0.000000000000e+000
          3.655035420000e-001 3.255507720000e-001 0.000000000000e+000
          3.843657540000e-001 3.249187520000e-001 0.000000000000e+000
          3.620975330000e-001 3.560346370000e-001 0.000000000000e+000
          3.512627780000e-001 3.391440580000e-001 0.000000000000e+000
          4.499617050000e-001 5.015835640000e-001 0.000000000000e+000
          4.342350580000e-001 5.014905690000e-001 0.000000000000e+000
          4.442913760000e-001 4.878780550000e-001 0.000000000000e+000
          4.428459580000e-001 5.878250430000e-001 0.000000000000e+000
          4.394391230000e-001 6.029122440000e-001 0.000000000000e+000
          4.750000000000e-001 3.000000000000e-001 0.000000000000e+000
          4.621409500000e-001 2.894091980000e-001 0.000000000000e+000
          2.375000000000e-001 0.000000000000e+000 0.000000000000e+000
          2.850000000000e-001 0.000000000000e+000 0.000000000000e+000
          3.328020250000e-001 1.169160730000e-001 0.000000000000e+000
          2.920212520000e-001 1.188378830000e-001 0.000000000000e+000
          2.291558360000e-001 5.885959210000e-001 0.000000000000e+000
          2.136428270000e-001 5.623651400000e-001 0.000000000000e+000
          2.442775890000e-001 5.609000500000e-001 0.000000000000e+000
          4.064206280000e-001 3.047299530000e-001 0.000000000000e+000
          4.182522270000e-001 3.108563120000e-001 0.000000000000e+000
          4.038465520000e-001 6.986003590000e-001 0.000000000000e+000
          4.028638560000e-001 6.886943560000e-001 0.000000000000e+000
          4.152648770000e-001 6.939116710000e-001 0.000000000000e+000
          3.503991620000e-001 3.921412100000e-001 0.000000000000e+000
          4.163989710000e-001 4.975390480000e-001 0.000000000000e+000
          4.089959850000e-001 4.792894720000e-001 0.000000000000e+000
          4.297013580000e-001 4.845435160000e-001 0.000000000000e+000
          1.264745580000e-001 6.127624150000e-001 0.000000000000e+000
          3.453115380000e-001 3.078956290000e-001 0.000000000000e+000
          3.197761870000e-001 5.295124480000e-001 0.000000000000e+000
          3.558901070000e-001 5.414409190000e-001 0.000000000000e+000
[...]
      <PointData Scalars="LIQUID_PRESSURE">
        <DataArray type="Float64" Name="LIQUID_PRESSURE" format="ascii">
          1.009355836600e+006 1.008641588048e+006 1.008382761307e+006 1.009525660894e+006 1.002743862814e+006 1.003127067357e+006 1.002701902615e+006 1.003158688561e+006 1.002784363482e+006 1.002809226409e+006 1.000996807026e+006 1.000936163939e+006 1.001230150581e+006 1.003407926511e+006 1.003059252755e+006 1.001017092430e+006 1.006059788602e+006 1.005860148767e+006 1.005608274131e+006 1.013251862192e+006 1.012483708232e+006 1.012354354773e+006 1.005116167522e+006 1.004822416998e+006 1.004907327287e+006 1.004520635094e+006 1.006378367078e+006 1.003183718674e+006 1.003401226614e+006 1.003102737530e+006 1.003178073632e+006 1.002820952807e+006 1.002551836095e+006 1.002490252213e+006 1.002225959998e+006 1.001982664170e+006 1.001984675807e+006 1.010675478574e+006 1.011283733522e+006 1.010562269847e+006 1.007983952842e+006 1.007354382792e+006 1.007358343310e+006 1.000722641321e+006 1.000810260170e+006 1.001131051414e+006 1.001575121754e+006 1.001177447497e+006 1.013161089904e+006 1.001943465964e+006 1.001669065352e+006 1.002208189503e+006 1.007885719167e+006 1.007705761379e+006 1.008000049840e+006 1.002651400014e+006 1.002082872926e+006 1.002779869187e+006 1.008152191239e+006 1.000607731365e+006 1.000481115577e+006 1.000714058910e+006 1.005304783120e+006 1.004768149577e+006 1.005464750754e+006 1.000959130517e+006 1.000782509323e+006 1.000354618682e+006 1.000218361643e+006 1.000469313487e+006 1.003882082425e+006 1.004263083419e+006 1.004360128442e+006 1.008257988617e+006 1.008053257157e+006 1.007971593610e+006 1.009487140699e+006 1.008990609829e+006 1.008929763902e+006 1.010446359674e+006 1.010718196771e+006 1.011264761111e+006 1.003724048443e+006 1.006062185406e+006 1.001287866242e+006 1.001563937224e+006 1.007449007579e+006 1.007609060771e+006 1.006645569314e+006 1.002255473941e+006 1.003475606609e+006 1.010315269938e+006 1.010381171607e+006 1.010821412222e+006 1.006049531002e+006 1.005912689272e+006 1.006261981412e+006 1.000750013526e+006 1.000714149561e+006 1.007500118285e+006 1.003688961991e+006 1.006517796751e+006 1.000000000000e+006 1.000000000000e+006 1.009992726966e+006 1.009883745914e+006 1.010514555415e+006 1.007192815737e+006 1.007580774992e+006 1.007593168212e+006 1.006982742183e+006 1.007314103752e+006 1.004127410026e+006 1.004129232337e+006 1.004396276517e+006 1.002435594469e+006 1.002139630765e+006 1.008081900700e+006 1.008289733169e+006 1.013960084298e+006 1.013959855625e+006 1.011673972101e+006 1.011636344863e+006 1.002420304118e+006 1.002934902721e+006 1.002963658076e+006 1.007989223889e+006 1.007869027908e+006 1.000260246774e+006 1.000456825736e+006 1.000355251423e+006 1.006274406643e+006 1.004206747966e+006 1.004564758422e+006 1.004461690134e+006 1.001946202912e+006 1.007927140619e+006 1.003579466924e+006 1.003345476709e+006 1.003535384643e+006 1.004125957073e+006 1.003942184268e+006 1.004307211033e+006 1.013961286271e+006 1.012929994549e+006 1.013216068339e+006 1.005544005623e+006 1.005232534060e+006 1.005248889579e+006 1.000743710806e+006 1.000984621628e+006 1.001157788463e+006 1.003252700635e+006 1.006224188219e+006 1.006477610973e+006 1.006101615551e+006 1.001781875791e+006 1.002559296425e+006 1.003167652004e+006 1.004761467020e+006 1.011173767396e+006 1.012043032941e+006 1.011239383977e+006 1.000582315208e+006 1.001099132127e+006 1.001262494524e+006 1.001224782643e+006 1.001439856348e+006 1.002098334131e+006 1.001833483702e+006 1.005191884854e+006 1.005451199813e+006 1.005581177907e+006 1.000500589150e+006 1.004772470962e+006 1.005292981342e+006 1.006662803634e+006 1.003629397113e+006 1.003283251620e+006 1.008377502281e+006 1.006765558643e+006 1.006045132408e+006 1.004138271096e+006 1.004461200586e+006 1.004035197027e+006 1.002921081445e+006 1.000344115219e+006 1.008458475868e+006 1.001481944690e+006 1.008380214921e+006 1.000400205302e+006 1.004655368155e+006 1.005286770212e+006 1.004322489862e+006 1.011609967178e+006 1.010975294422e+006 1.005948895085e+006 1.005594266838e+006 1.004645657478e+006 1.004706458074e+006 1.000161459471e+006 1.001972235935e+006 1.010448510968e+006 1.008417740175e+006 1.008476303141e+006 1.007882158144e+006 1.007617452002e+006 1.007767097593e+006 1.013955125352e+006 1.000650937915e+006 1.009240488352e+006 1.005246104408e+006 1.007123905579e+006 1.007066464486e+006 1.007376058436e+006 1.002038276292e+006 1.001711337275e+006 1.001624517423e+006 1.004971451777e+006 1.007842474549e+006 1.005952502865e+006 1.006773145385e+006 1.002012132247e+006 1.013206687428e+006 1.004623546343e+006 1.009006299855e+006 1.008755740055e+006 1.008507828967e+006 1.000251298303e+006 1.000151938546e+006 1.004593001181e+006 1.004030440849e+006 1.003683125470e+006 1.009284268215e+006 1.008237305081e+006 1.001847283267e+006 1.008193945650e+006 1.000552791460e+006 1.000651790789e+006 1.000314174515e+006 1.000618336088e+006 1.006398830384e+006 1.006637229065e+006 1.000514227906e+006 1.004479227456e+006 1.012027516101e+006 1.003832234129e+006 1.010362230399e+006 1.001291277858e+006 1.002281487284e+006 1.001081291346e+006 1.000575450351e+006 1.009713384058e+006 1.005577987839e+006 1.010957564691e+006 1.007670396906e+006 1.007279227009e+006 1.007176146822e+006 1.006647930792e+006 1.010778729569e+006 1.011120892260e+006 1.005798247038e+006 1.007470593700e+006 1.009895474865e+006 1.009571215656e+006 1.009337193500e+006 1.010887447079e+006 1.010267024435e+006 1.012319093972e+006 1.000018512217e+006 1.000015321454e+006 1.008952466092e+006 1.002528866828e+006 1.012611061084e+006 1.011965328815e+006 1.000898711279e+006 1.011779309198e+006 1.001353634791e+006 1.006810384252e+006 1.002792969262e+006 1.002970654985e+006 1.002143263694e+006 1.007050813194e+006 1.006875888301e+006 1.004518114454e+006 1.004673546280e+006 1.005131285720e+006 1.009217631827e+006 1.012479982509e+006 1.013959243352e+006 1.013237793144e+006 1.006125742744e+006 1.009140373094e+006 1.009845077110e+006 1.009687853629e+006 1.002937836471e+006 1.002772174299e+006 1.006590823735e+006 1.001978752340e+006 1.007457371314e+006 1.007180342771e+006 1.003584692691e+006 1.005586583572e+006 1.002406798786e+006 1.002577946225e+006 1.001674936654e+006 1.011350393473e+006 1.008740850703e+006 1.009372634297e+006 1.008794077221e+006 1.001312865550e+006 1.000913368579e+006 1.004129049776e+006 1.001861711688e+006 1.002372823679e+006 1.002140956676e+006 1.003688955840e+006 1.003277397980e+006 1.003266161787e+006 1.003386075796e+006 1.006367226583e+006 1.012105546844e+006 1.001030541786e+006 1.000917775094e+006 1.008227161587e+006 1.000005221130e+006 1.000783360277e+006 1.000008011275e+006 1.002563476089e+006 1.012211839116e+006 1.006637274255e+006 1.001216380380e+006 1.000640063661e+006 1.005218108146e+006 1.002382356600e+006 1.002996470779e+006 1.004249612343e+006 1.004357738136e+006 1.005754216956e+006 1.002993465694e+006 1.006652835214e+006 1.005886273109e+006 1.005898470103e+006 1.003937226761e+006 1.006684920640e+006 1.005213034968e+006 1.004869787185e+006 1.003390292423e+006 1.009201177564e+006 1.001620942014e+006 1.003724140703e+006 1.001331768074e+006 1.001440742785e+006 1.001184607476e+006 1.011154634798e+006 1.007985895645e+006 1.008426825660e+006 1.001770138933e+006 1.007650007826e+006 1.000676099768e+006 1.001117146687e+006 1.001454826369e+006 1.010691332847e+006 1.011435414257e+006 1.000280435767e+006 1.003510661301e+006 1.003964024474e+006 1.003464516712e+006 1.012942057213e+006 1.003756138552e+006 1.005057169846e+006 1.005568012148e+006 1.007898525709e+006 1.003979920105e+006 1.001316112522e+006 1.001984679016e+006 1.002341332261e+006 1.002417002101e+006 1.002698265608e+006 1.005136127031e+006 1.001491786515e+006 1.005997844545e+006 1.007323007061e+006 1.011920394958e+006 1.004053726301e+006 1.003545694129e+006 1.003614559077e+006 1.013356392042e+006 1.006267929382e+006 1.000929893069e+006 1.005707506902e+006 1.000149055183e+006 1.012593124613e+006 1.007102392418e+006 1.001735717720e+006 1.003494549988e+006 1.003910073688e+006 1.001967767459e+006 1.001726829714e+006 1.001850737556e+006 1.012550281672e+006 1.012084288801e+006 1.004821591047e+006 1.003310219351e+006 1.010242616140e+006 1.001333296802e+006 1.003024380898e+006 1.009601127115e+006 1.002936916061e+006 1.006643961222e+006 1.013327037650e+006 1.009323392562e+006 1.009029171258e+006 1.001756667790e+006 1.003695886317e+006 1.002411874968e+006 1.006905188751e+006 1.006756882830e+006 1.002791481807e+006 1.000921235981e+006 1.005655884104e+006 1.001478618538e+006 1.000919410476e+006 1.000383666710e+006 1.004221862622e+006 1.008526589845e+006 1.008843199536e+006 1.001418242733e+006 1.007359597322e+006 1.005902753346e+006 1.000014254812e+006 1.000011443420e+006 1.007705044243e+006 1.006622283445e+006 1.001005655778e+006 1.000012111794e+006 1.000656863235e+006 1.008064786693e+006 1.007413814902e+006 1.007526855368e+006 1.011836383108e+006 1.012536783883e+006 1.010042045890e+006 1.005376344262e+006 1.005052045065e+006 1.001230766250e+006 1.000569395516e+006 1.000975349262e+006 1.013960828638e+006 1.010216957499e+006 1.002597603030e+006 1.001629911111e+006 1.001183610117e+006 1.002467918978e+006 1.002589715233e+006 1.013238655864e+006 1.006109201690e+006 1.003947855786e+006 1.009869140693e+006 1.002080973545e+006 1.005532653173e+006 1.013957539736e+006 1.006559698537e+006 1.003810765132e+006 1.005475758238e+006 1.000936445270e+006 1.000666021180e+006 1.008014175017e+006 1.011020592777e+006 1.000328297160e+006 1.000395819255e+006 1.000521114571e+006 1.009471854754e+006 1.009992201797e+006 1.009249413854e+006 1.008600854279e+006 1.000462090034e+006 1.008663455696e+006 1.008628002472e+006 1.004674210138e+006 1.004728218097e+006 1.012325517075e+006 1.003995011320e+006 1.009503294648e+006 1.004476736183e+006 1.008871141533e+006 1.002727439068e+006 1.011121636328e+006 1.000759756426e+006 1.002284314893e+006 1.009697181701e+006 1.000021962393e+006 1.004930324138e+006 1.000034457234e+006 1.007509989336e+006 1.000015265821e+006 1.001368172748e+006 1.000010229452e+006 1.007353047599e+006 1.000949204729e+006 1.002679548195e+006 1.013959994853e+006 1.013109062680e+006 1.013319293077e+006 1.011511660761e+006 1.004971562052e+006 1.006697424780e+006 1.001668735550e+006 1.001287307968e+006 1.000019787568e+006 1.000014148152e+006 1.000288174219e+006 1.004095192662e+006 1.003695460944e+006 1.001648307001e+006 1.000334959756e+006 1.006854577218e+006 1.000025227780e+006 1.000034293038e+006 1.000137629309e+006 1.009178199409e+006 1.000195555761e+006 1.000022506354e+006 1.000179188034e+006 1.001626184666e+006 1.009811654535e+006 1.002261130996e+006 1.000191636612e+006 1.000832718527e+006 1.004735675814e+006 1.011836187782e+006 1.013957147728e+006 1.006003792637e+006 1.000031562892e+006 1.012715389052e+006 1.000025850101e+006 1.005708771788e+006 1.000380710795e+006 1.001658692604e+006 1.001525587912e+006 1.000029535803e+006 1.010209166161e+006 1.002057778863e+006 1.001681812912e+006 1.004581359154e+006 1.000024164938e+006 1.000218451265e+006 1.000653506185e+006 1.006209207300e+006 1.006803479634e+006 1.001419800331e+006 1.001038812300e+006 1.000820602989e+006 1.000487646724e+006 1.006991252639e+006 1.007143438837e+006 1.013960950328e+006 1.013036340144e+006 1.013956883643e+006 1.006973829378e+006 1.009819037095e+006 1.000153840643e+006 1.000298968739e+006 1.000445900597e+006 1.000405122435e+006 1.005503102197e+006 1.006121214555e+006 1.000012525579e+006 1.000107982916e+006 1.010116717818e+006 1.010405037694e+006 1.000805572895e+006 1.004427042834e+006 1.002860451697e+006 1.009311419590e+006 1.002214746708e+006 1.011860490999e+006 1.006643921925e+006 1.006574407984e+006 1.002095414086e+006 1.001167110105e+006 1.004214178420e+006 1.005011623393e+006 1.008854896570e+006 1.003875987006e+006 1.008430528441e+006 1.011411433406e+006 1.002525579615e+006 1.006366539428e+006 1.009016645490e+006 1.008295616103e+006 1.007795886287e+006 1.012613405709e+006 1.008172167463e+006 1.005230620347e+006 1.008417352843e+006 1.007936578524e+006 1.008527543494e+006 1.001528015558e+006 1.002392825519e+006 1.008637618984e+006 
        </DataArray>
        <DataArray type="Float64" Name="MEAN_PRESSURE" format="ascii">