<?xml version="1.0"?>
<VTKFile type="UnstructuredGrid" version="0.1" byte_order="LittleEndian">
  <UnstructuredGrid>
    <Piece NumberOfPoints="601" NumberOfCells="1114">
      <Points>
        <DataArray type="Float64" NumberOfComponents="3" format="ascii">
          9.510000000000e-002 2.350697990000e-001 0.000000000000e+000
          1.063631230000e-001 2.714774400000e-001 0.000000000000e+000
          6.050000000000e-002 2.846704020000e-001 0.000000000000e+000
          5.720000000000e-002 2.264127830000e-001 0.000000000000e+000
          3.607917390000e-001 5.721080920000e-001 0.000000000000e+000
          3.768558020000e-001 5.525748860000e-001 0.000000000000e+000
          3.789778370000e-001 5.742477180000e-001 0.000000000000e+000
          3.136481190000e-001 5.509609410000e-001 0.000000000000e+000
          3.128188330000e-001 5.700416560000e-001 0.000000000000e+000
          2.881707800000e-001 5.687733920000e-001 0.000000000000e+000
          4.429907380000e-001 6.611719170000e-001 0.000000000000e+000
          4.320814310000e-001 6.642626630000e-001 0.000000000000e+000
          4.324781590000e-001 6.492754290000e-001 0.000000000000e+000
          2.969991220000e-001 5.382558640000e-001 0.000000000000e+000
          3.554110690000e-001 5.560310200000e-001 0.000000000000e+000
          4.214534510000e-001 6.601358340000e-001 0.000000000000e+000
          3.005429170000e-001 4.030809660000e-001 0.000000000000e+000
          3.340207110000e-001 4.132574770000e-001 0.000000000000e+000
          3.087980550000e-001 4.260963220000e-001 0.000000000000e+000
          3.053610030000e-001 3.660000000000e-002 0.000000000000e+000
          3.226354220000e-001 7.560000000000e-002 0.000000000000e+000
          2.746654270000e-001 8.220000000000e-002 0.000000000000e+000
          3.714377890000e-001 4.511813880000e-001 0.000000000000e+000
          3.808127360000e-001 4.661551930000e-001 0.000000000000e+000
          3.485926620000e-001 4.618266300000e-001 0.000000000000e+000
          3.675564050000e-001 4.815381760000e-001 0.000000000000e+000
          3.187177420000e-001 3.868419500000e-001 0.000000000000e+000
          4.410873470000e-001 5.496885300000e-001 0.000000000000e+000
          4.522404520000e-001 5.386010270000e-001 0.000000000000e+000
          4.593241840000e-001 5.538167910000e-001 0.000000000000e+000
          4.014960550000e-001 5.499755270000e-001 0.000000000000e+000
          3.980412370000e-001 5.681797670000e-001 0.000000000000e+000
          4.118653570000e-001 5.818986230000e-001 0.000000000000e+000
          4.290214690000e-001 5.850384460000e-001 0.000000000000e+000
          4.227055460000e-001 5.985109270000e-001 0.000000000000e+000
          4.262176060000e-001 6.109134930000e-001 0.000000000000e+000
          4.083256760000e-001 6.108101250000e-001 0.000000000000e+000
          4.074199840000e-001 1.678065540000e-001 0.000000000000e+000
          4.338525000000e-001 1.367993340000e-001 0.000000000000e+000
          4.419993050000e-001 1.735765240000e-001 0.000000000000e+000
          2.938198300000e-001 3.050000000000e-001 0.000000000000e+000
          3.040856940000e-001 3.370911280000e-001 0.000000000000e+000
          2.728783300000e-001 3.368892400000e-001 0.000000000000e+000
          4.245255210000e-001 6.751478260000e-001 0.000000000000e+000
          4.115146200000e-001 6.706797750000e-001 0.000000000000e+000
          2.172506940000e-001 6.543239900000e-001 0.000000000000e+000
          2.369118240000e-001 6.316770480000e-001 0.000000000000e+000
          2.468783150000e-001 6.519368170000e-001 0.000000000000e+000
          2.564526880000e-001 4.120000000000e-002 0.000000000000e+000
          3.448377420000e-001 6.129073000000e-001 0.000000000000e+000
          3.251379980000e-001 6.268927700000e-001 0.000000000000e+000
          3.273312140000e-001 5.994122080000e-001 0.000000000000e+000
          4.750000000000e-001 3.100000000000e-001 0.000000000000e+000
          4.622391060000e-001 3.191759170000e-001 0.000000000000e+000
          4.632789630000e-001 3.041741210000e-001 0.000000000000e+000
          1.686277520000e-001 5.768153050000e-001 0.000000000000e+000
          1.600733810000e-001 6.057946050000e-001 0.000000000000e+000
          1.336495140000e-001 5.702660460000e-001 0.000000000000e+000
          2.648985480000e-001 2.964243830000e-001 0.000000000000e+000
          4.750000000000e-001 6.810086020000e-001 0.000000000000e+000
          4.639688660000e-001 6.874614690000e-001 0.000000000000e+000
          4.675279960000e-001 6.755881310000e-001 0.000000000000e+000
          1.561569900000e-001 4.415648520000e-001 0.000000000000e+000
          1.171065000000e-001 4.689182860000e-001 0.000000000000e+000
          1.132137760000e-001 4.334105240000e-001 0.000000000000e+000
          4.561931150000e-001 6.630934020000e-001 0.000000000000e+000
          4.518916820000e-001 6.720976590000e-001 0.000000000000e+000
          4.522697350000e-001 6.939175990000e-001 0.000000000000e+000
          4.419733660000e-001 7.008709150000e-001 0.000000000000e+000
          4.414427990000e-001 6.880619320000e-001 0.000000000000e+000
          3.033683560000e-001 5.140865850000e-001 0.000000000000e+000
          2.832124480000e-001 4.946651860000e-001 0.000000000000e+000
          3.072265520000e-001 4.897188920000e-001 0.000000000000e+000
          4.221152260000e-001 2.910297120000e-001 0.000000000000e+000
          4.412966690000e-001 3.014644090000e-001 0.000000000000e+000
          4.299153840000e-001 3.056276890000e-001 0.000000000000e+000
          4.222588150000e-001 2.283775240000e-001 0.000000000000e+000
          4.357605810000e-001 2.536862780000e-001 0.000000000000e+000
          4.167418710000e-001 2.567880820000e-001 0.000000000000e+000
          1.638570440000e-001 1.794837980000e-001 0.000000000000e+000
          1.278151710000e-001 1.656272250000e-001 0.000000000000e+000
          1.617419920000e-001 1.377643790000e-001 0.000000000000e+000
          2.790434020000e-001 5.221415640000e-001 0.000000000000e+000
          1.305952380000e-001 4.029576320000e-001 0.000000000000e+000
          4.451347220000e-001 6.463338270000e-001 0.000000000000e+000
          4.413636270000e-001 6.322598450000e-001 0.000000000000e+000
          0.000000000000e+000 3.322666670000e-001 0.000000000000e+000
          4.030000000000e-002 3.241083040000e-001 0.000000000000e+000
          4.880000000000e-002 3.732204480000e-001 0.000000000000e+000
          4.096990520000e-001 5.970059090000e-001 0.000000000000e+000
          4.359622120000e-001 5.348093080000e-001 0.000000000000e+000
          8.634709500000e-002 1.861646220000e-001 0.000000000000e+000
          3.820000000000e-002 1.828048070000e-001 0.000000000000e+000
          1.912784940000e-001 1.603665230000e-001 0.000000000000e+000
          4.750000000000e-001 4.036036940000e-001 0.000000000000e+000
          4.642303300000e-001 4.105791900000e-001 0.000000000000e+000
          4.598121640000e-001 3.927740700000e-001 0.000000000000e+000
          2.401182360000e-001 6.738008570000e-001 0.000000000000e+000
          4.389592840000e-001 6.755823070000e-001 0.000000000000e+000
          4.750000000000e-001 3.296588890000e-001 0.000000000000e+000
          4.476987140000e-001 5.239335440000e-001 0.000000000000e+000
          0.000000000000e+000 3.797333330000e-001 0.000000000000e+000
          4.375000000000e-001 7.120000000000e-001 0.000000000000e+000
          4.475000000000e-001 7.120000000000e-001 0.000000000000e+000
          3.486106110000e-001 2.026073050000e-001 0.000000000000e+000
          3.165227960000e-001 2.081622480000e-001 0.000000000000e+000
          3.392437750000e-001 1.760088600000e-001 0.000000000000e+000
          3.790988860000e-001 3.453262370000e-001 0.000000000000e+000
          3.655035420000e-001 3.255507720000e-001 0.000000000000e+000
          3.843657540000e-001 3.249187520000e-001 0.000000000000e+000
          3.620975330000e-001 3.560346370000e-001 0.000000000000e+000
          3.512627780000e-001 3.391440580000e-001 0.000000000000e+000
          4.499617050000e-001 5.015835640000e-001 0.000000000000e+000
          4.342350580000e-001 5.014905690000e-001 0.000000000000e+000
          4.442913760000e-001 4.878780550000e-001 0.000000000000e+000
          4.428459580000e-001 5.878250430000e-001 0.000000000000e+000
          4.394391230000e-001 6.029122440000e-001 0.000000000000e+000
          4.750000000000e-001 3.000000000000e-001 0.000000000000e+000
          4.621409500000e-001 2.894091980000e-001 0.000000000000e+000
          2.375000000000e-001 0.000000000000e+000 0.000000000000e+000
          2.850000000000e-001 0.000000000000e+000 0.000000000000e+000
          3.328020250000e-001 1.169160730000e-001 0.000000000000e+000
          2.920212520000e-001 1.188378830000e-001 0.000000000000e+000
          2.291558360000e-001 5.885959210000e-001 0.000000000000e+000
          2.136428270000e-001 5.623651400000e-001 0.000000000000e+000
          2.442775890000e-001 5.609000500000e-001 0.000000000000e+000
          4.064206280000e-001 3.047299530000e-001 0.000000000000e+000
          4.182522270000e-001 3.108563120000e-001 0.000000000000e+000
          4.038465520000e-001 6.986003590000e-001 0.000000000000e+000
          4.028638560000e-001 6.886943560000e-001 0.000000000000e+000
          4.152648770000e-001 6.939116710000e-001 0.000000000000e+000
          3.503991620000e-001 3.921412100000e-001 0.000000000000e+000
          4.163989710000e-001 4.975390480000e-001 0.000000000000e+000
          4.089959850000e-001 4.792894720000e-001 0.000000000000e+000
          4.297013580000e-001 4.845435160000e-001 0.000000000000e+000
          1.264745580000e-001 6.127624150000e-001 0.000000000000e+000
          3.453115380000e-001 3.078956290000e-001 0.000000000000e+000
          3.197761870000e-001 5.295124480000e-001 0.000000000000e+000
          3.558901070000e-001 5.414409190000e-001 0.000000000000e+000
[...]
      <PointData Scalars="LIQUID_PRESSURE">
        <DataArray type="Float64" Name="LIQUID_PRESSURE" format="ascii">
          1.000014812890e+006 1.000014041711e+006 1.000013796586e+006 1.000015026798e+006 1.000007050724e+006 1.000007470124e+006 1.000006917062e+006 1.000007744294e+006 1.000007318620e+006 1.000007449597e+006 1.000003684840e+006 1.000003638378e+006 1.000004300364e+006 1.000008087431e+006 1.000007463653e+006 1.000003932403e+006 1.000011078763e+006 1.000010816242e+006 1.000010559055e+006 1.000033236264e+006 1.000016094725e+006 1.000015457526e+006 1.000009905534e+006 1.000009542943e+006 1.000009692791e+006 1.000009202955e+006 1.000011420447e+006 1.000007384404e+006 1.000007658775e+006 1.000007243966e+006 1.000007462036e+006 1.000007003296e+006 1.000006588010e+006 1.000006439033e+006 1.000006054663e+006 1.000005653728e+006 1.000005766824e+006 1.000016106926e+006 1.000016873128e+006 1.000016055676e+006 1.000013219887e+006 1.000012522198e+006 1.000012544043e+006 1.000003638818e+006 1.000003772781e+006 1.000005699202e+006 1.000006571107e+006 1.000006175342e+006 1.000032809779e+006 1.000006156451e+006 1.000005974366e+006 1.000006582656e+006 1.000013232668e+006 1.000012977984e+006 1.000013353809e+006 1.000007693954e+006 1.000007089664e+006 1.000007905158e+006 1.000013414947e+006 1.000005041464e+006 1.000008688025e+006 1.000003475669e+006 1.000010450286e+006 1.000009944846e+006 1.000010668290e+006 1.000003552019e+006 1.000003259905e+006 1.000011973413e+006 1.000010879705e+006 1.000005009195e+006 1.000008605610e+006 1.000009088305e+006 1.000009140923e+006 1.000013567755e+006 1.000013360287e+006 1.000013249225e+006 1.000014934959e+006 1.000014411752e+006 1.000014314348e+006 1.000015892365e+006 1.000016179388e+006 1.000016906847e+006 1.000008497749e+006 1.000011277517e+006 1.000004329821e+006 1.000004863062e+006 1.000012811892e+006 1.000012974907e+006 1.000011947097e+006 1.000006162495e+006 1.000007778799e+006 1.000015804470e+006 1.000015887340e+006 1.000016257822e+006 1.000010969219e+006 1.000010804565e+006 1.000011225311e+006 1.000002917224e+006 1.000003205225e+006 1.000012724531e+006 1.000008042748e+006 1.000011822161e+006 1.000000000000e+006 1.000000000000e+006 1.000015393446e+006 1.000015275264e+006 1.000015913206e+006 1.000012322410e+006 1.000012763576e+006 1.000012781413e+006 1.000012083799e+006 1.000012462511e+006 1.000008606039e+006 1.000008621763e+006 1.000008949790e+006 1.000006304509e+006 1.000005848458e+006 1.000013500276e+006 1.000013682048e+006 9.999303959945e+005 9.999287860775e+005 1.000017128898e+006 1.000017211554e+006 1.000007251630e+006 1.000007855941e+006 1.000007782928e+006 1.000013245429e+006 1.000013118056e+006 1.000037104672e+006 1.000012628551e+006 1.000020856302e+006 1.000011277039e+006 1.000008740446e+006 1.000009193202e+006 1.000009043359e+006 1.000007003755e+006 1.000013150741e+006 1.000008208564e+006 1.000007811964e+006 1.000008008773e+006 1.000008595552e+006 1.000008363138e+006 1.000008829014e+006 9.999429134908e+005 1.000025951465e+006 1.000041397771e+006 1.000010362520e+006 1.000009979887e+006 1.000010007276e+006 1.000003467935e+006 1.000005118108e+006 1.000005511067e+006 1.000008310620e+006 1.000011196215e+006 1.000011487207e+006 1.000011041739e+006 1.000006749390e+006 1.000007297636e+006 1.000007910424e+006 1.000009422192e+006 1.000016847655e+006 1.000017471824e+006 1.000016870157e+006 1.000006015429e+006 1.000004256727e+006 1.000004200519e+006 1.000004154263e+006 1.000004564079e+006 1.000005734461e+006 1.000005304303e+006 1.000009969686e+006 1.000010301119e+006 1.000010438644e+006 1.000000821789e+006 1.000009583357e+006 1.000010165794e+006 1.000011761285e+006 1.000008758012e+006 1.000008477737e+006 1.000013727948e+006 1.000012008031e+006 1.000011220635e+006 1.000008730561e+006 1.000009095649e+006 1.000008570579e+006 1.000007021796e+006 1.000013672019e+006 1.000013874447e+006 1.000004809049e+006 1.000013827991e+006 1.000015797406e+006 1.000009893604e+006 1.000010535793e+006 1.000009545601e+006 1.000017299108e+006 1.000016459158e+006 1.000010849900e+006 1.000010419737e+006 1.000009257265e+006 1.000009341299e+006 1.000050100725e+006 1.000006432971e+006 1.000015832184e+006 1.000013696172e+006 1.000013755199e+006 1.000013177879e+006 1.000012854964e+006 1.000013023270e+006 9.999002998145e+005 1.000004094660e+006 1.000014642435e+006 1.000010078807e+006 1.000012263333e+006 1.000012190623e+006 1.000012566189e+006 1.000006048309e+006 1.000005497441e+006 1.000005491507e+006 1.000009663336e+006 1.000013058029e+006 1.000011201853e+006 1.000012046657e+006 1.000006730487e+006 1.000034032563e+006 1.000009733787e+006 1.000014334550e+006 1.000014074165e+006 1.000013793106e+006 1.000030294125e+006 1.000030930969e+006 1.000009809574e+006 1.000009210228e+006 1.000008909247e+006 1.000014642420e+006 1.000013522942e+006 1.000005380352e+006 1.000013542618e+006 1.000004975604e+006 1.000003076199e+006 1.000025172680e+006 1.000004414748e+006 1.000011389507e+006 1.000011758296e+006 1.000007238361e+006 1.000009195223e+006 1.000017229944e+006 1.000008216362e+006 1.000015908553e+006 1.000005520236e+006 1.000006273607e+006 1.000003803180e+006 1.000004171306e+006 1.000015253388e+006 1.000010469623e+006 1.000016464229e+006 1.000012902848e+006 1.000012513980e+006 1.000012379591e+006 1.000011819622e+006 1.000016195125e+006 1.000016629970e+006 1.000010673090e+006 1.000012642237e+006 1.000015396524e+006 1.000015109581e+006 1.000014813002e+006 1.000016296583e+006 1.000015700915e+006 1.000015318916e+006 1.000126896029e+006 1.000123518628e+006 1.000014438521e+006 1.000007683770e+006 1.000016963151e+006 1.000017196317e+006 1.000004393723e+006 1.000017157826e+006 1.000005877814e+006 1.000011883904e+006 1.000007921703e+006 1.000008190126e+006 1.000007425813e+006 1.000012168041e+006 1.000011982062e+006 1.000009463984e+006 1.000009684611e+006 1.000010121138e+006 1.000014584828e+006 1.000016432024e+006 9.999276199661e+005 1.000030935188e+006 1.000011065108e+006 1.000014538759e+006 1.000015322707e+006 1.000015108887e+006 1.000007117282e+006 1.000006864564e+006 1.000011623491e+006 1.000005873509e+006 1.000012654423e+006 1.000012322933e+006 1.000008419685e+006 1.000010851008e+006 1.000006934714e+006 1.000007019622e+006 1.000005314723e+006 1.000016860023e+006 1.000014051720e+006 1.000014725218e+006 1.000014101258e+006 1.000006097908e+006 1.000004507475e+006 1.000009001418e+006 1.000007858168e+006 1.000006167415e+006 1.000005785883e+006 1.000008081601e+006 1.000007547012e+006 1.000007461308e+006 1.000007627791e+006 1.000011352651e+006 1.000017039204e+006 1.000004785697e+006 1.000004314383e+006 1.000013488323e+006 1.000079814362e+006 9.999903771007e+005 1.000102701609e+006 1.000006676116e+006 1.000016831162e+006 1.000011684173e+006 1.000006567327e+006 1.000003584339e+006 1.000010271038e+006 1.000007324179e+006 1.000007992939e+006 1.000008814719e+006 1.000009095755e+006 1.000010627322e+006 1.000007081432e+006 1.000011719296e+006 1.000010794376e+006 1.000010826762e+006 1.000008368037e+006 1.000011889731e+006 1.000010432647e+006 1.000009532611e+006 1.000008281821e+006 1.000014540261e+006 1.000004910976e+006 1.000008976376e+006 1.000005123652e+006 1.000005063395e+006 1.000004734484e+006 1.000016731689e+006 1.000013227969e+006 1.000013723289e+006 1.000005806042e+006 1.000012871940e+006 1.000004574468e+006 1.000003937125e+006 1.000005467148e+006 1.000016089653e+006 1.000017099587e+006 1.000031542556e+006 1.000008494809e+006 1.000009032501e+006 1.000007865360e+006 1.000028136693e+006 1.000008253868e+006 1.000009985050e+006 1.000010553163e+006 1.000013122307e+006 1.000008916480e+006 1.000007569496e+006 1.000007211781e+006 1.000006106707e+006 1.000006533371e+006 1.000007853707e+006 1.000010030239e+006 1.000004648737e+006 1.000011272926e+006 1.000012485787e+006 1.000017222960e+006 1.000009058983e+006 1.000007839276e+006 1.000007934336e+006 1.000028068290e+006 1.000011256643e+006 1.000000274584e+006 1.000010749496e+006 1.000029645563e+006 1.000015987382e+006 1.000012280595e+006 1.000005279474e+006 1.000007857107e+006 1.000008385319e+006 1.000005491932e+006 1.000005075489e+006 1.000005301322e+006 1.000016092299e+006 1.000016863243e+006 1.000009521256e+006 1.000007838883e+006 1.000015789485e+006 1.000005929970e+006 1.000007202211e+006 1.000014973346e+006 1.000007392350e+006 1.000011683462e+006 1.000030271062e+006 1.000014832752e+006 1.000014485264e+006 1.000006711119e+006 1.000008140548e+006 1.000006618275e+006 1.000011994665e+006 1.000011820101e+006 1.000006810170e+006 1.000003418593e+006 1.000010729316e+006 1.000007493727e+006 1.000004041056e+006 1.000013280277e+006 1.000008864033e+006 1.000013854336e+006 1.000014191494e+006 1.000004548797e+006 1.000012689654e+006 1.000010847366e+006 1.000121846905e+006 1.000116571982e+006 1.000012916193e+006 1.000011765597e+006 1.000004512824e+006 1.000118940625e+006 9.999909663225e+005 1.000013391745e+006 1.000012684585e+006 1.000012838006e+006 1.000017339968e+006 1.000017200118e+006 1.000015589370e+006 1.000010153481e+006 1.000009756090e+006 1.000006610334e+006 9.999966000491e+005 1.000004146144e+006 9.999390872796e+005 1.000015687193e+006 1.000006958177e+006 1.000005793251e+006 1.000005107528e+006 1.000006302579e+006 1.000006494965e+006 1.000034215465e+006 1.000011162703e+006 1.000008408622e+006 1.000015303412e+006 1.000006222217e+006 1.000010644911e+006 9.999164778934e+005 1.000011841198e+006 1.000008217189e+006 1.000010298887e+006 1.000003991726e+006 1.000004325365e+006 1.000013376565e+006 1.000016517664e+006 1.000024176832e+006 1.000017704772e+006 1.000008157938e+006 1.000014853292e+006 1.000015399669e+006 1.000014600961e+006 1.000013960142e+006 1.000006754460e+006 1.000014053998e+006 1.000014038379e+006 1.000009584912e+006 1.000009587135e+006 1.000016773023e+006 1.000008679388e+006 1.000014905664e+006 1.000009531166e+006 1.000014315242e+006 1.000006695750e+006 1.000016561023e+006 1.000004156490e+006 1.000006046102e+006 1.000015091131e+006 1.000127732097e+006 1.000009637843e+006 1.000092751472e+006 1.000012697616e+006 1.000124740058e+006 1.000004793938e+006 1.000112022593e+006 1.000012509585e+006 1.000004169905e+006 1.000006678711e+006 9.999323226352e+005 1.000026556934e+006 1.000031754741e+006 1.000017068013e+006 1.000010053182e+006 1.000011761219e+006 1.000006088732e+006 1.000004532813e+006 1.000128805035e+006 1.000118380680e+006 1.000032083669e+006 1.000008746668e+006 1.000008270951e+006 1.000006316541e+006 1.000021472426e+006 1.000011932473e+006 1.000122308873e+006 1.000119416206e+006 1.000063585653e+006 1.000014601525e+006 1.000049077232e+006 1.000125616273e+006 1.000058047486e+006 1.000004901230e+006 1.000015203295e+006 1.000006528175e+006 1.000054620192e+006 1.000002599210e+006 1.000009364735e+006 1.000017350957e+006 9.999146519116e+005 1.000011138334e+006 1.000099265473e+006 1.000018488027e+006 1.000129008730e+006 1.000010557630e+006 1.000014309355e+006 1.000005083684e+006 1.000004977916e+006 1.000123293922e+006 1.000015637856e+006 1.000006709721e+006 1.000006204166e+006 1.000009172793e+006 1.000128328775e+006 1.000045047780e+006 1.000003361010e+006 1.000011299355e+006 1.000011871109e+006 1.000007176766e+006 1.000003685108e+006 1.000003261997e+006 1.000006066534e+006 1.000012094108e+006 1.000012269804e+006 9.999412215641e+005 1.000025733963e+006 9.999129578677e+005 1.000012070051e+006 1.000015370039e+006 1.000063426307e+006 1.000028139840e+006 1.000012958412e+006 1.000017438132e+006 1.000010320722e+006 1.000011229392e+006 1.000119610583e+006 1.000064470706e+006 1.000015513463e+006 1.000015779729e+006 1.000003355892e+006 1.000008978227e+006 1.000006895026e+006 1.000014866333e+006 1.000005901950e+006 1.000017314741e+006 1.000011682913e+006 1.000011600457e+006 1.000006665876e+006 1.000004541813e+006 1.000009349236e+006 1.000009722995e+006 1.000014189555e+006 1.000008443721e+006 1.000013808105e+006 1.000017005791e+006 1.000006417942e+006 1.000011353605e+006 1.000014382376e+006 1.000013583955e+006 1.000013057576e+006 1.000017969137e+006 1.000013527467e+006 1.000009996417e+006 1.000013733187e+006 1.000013231273e+006 1.000013873671e+006 1.000007051113e+006 1.000007029752e+006 1.000014014883e+006 
        </DataArray>
        <DataArray type="Float64" Name="MEAN_PRESSURE" format="ascii">