<?xml version="1.0"?>
<VTKFile type="UnstructuredGrid" version="0.1" byte_order="LittleEndian">
  <UnstructuredGrid>
    <Piece NumberOfPoints="601" NumberOfCells="1114">
      <Points>
        <DataArray type="Float64" NumberOfComponents="3" format="ascii">
          9.510000000000e-002 2.350697990000e-001 0.000000000000e+000
          1.063631230000e-001 2.714774400000e-001 0.000000000000e+000
          6.050000000000e-002 2.846704020000e-001 0.000000000000e+000
          5.720000000000e-002 2.264127830000e-001 0.000000000000e+000
          3.607917390000e-001 5.721080920000e-001 0.000000000000e+000
          3.768558020000e-001 5.525748860000e-001 0.000000000000e+000
          3.789778370000e-001 5.742477180000e-001 0.000000000000e+000
          3.136481190000e-001 5.509609410000e-001 0.000000000000e+000
          3.128188330000e-001 5.700416560000e-001 0.000000000000e+000
          2.881707800000e-001 5.687733920000e-001 0.000000000000e+000
          4.429907380000e-001 6.611719170000e-001 0.000000000000e+000
          4.320814310000e-001 6.642626630000e-001 0.000000000000e+000
          4.324781590000e-001 6.492754290000e-001 0.000000000000e+000
          2.969991220000e-001 5.382558640000e-001 0.000000000000e+000
          3.554110690000e-001 5.560310200000e-001 0.000000000000e+000
          4.214534510000e-001 6.601358340000e-001 0.000000000000e+000
          3.005429170000e-001 4.030809660000e-001 0.000000000000e+000
          3.340207110000e-001 4.132574770000e-001 0.000000000000e+000
          3.087980550000e-001 4.260963220000e-001 0.000000000000e+000
          3.053610030000e-001 3.660000000000e-002 0.000000000000e+000
          3.226354220000e-001 7.560000000000e-002 0.000000000000e+000
          2.746654270000e-001 8.220000000000e-002 0.000000000000e+000
          3.714377890000e-001 4.511813880000e-001 0.000000000000e+000
          3.808127360000e-001 4.661551930000e-001 0.000000000000e+000
          3.485926620000e-001 4.618266300000e-001 0.000000000000e+000
          3.675564050000e-001 4.815381760000e-001 0.000000000000e+000
          3.187177420000e-001 3.868419500000e-001 0.000000000000e+000
          4.410873470000e-001 5.496885300000e-001 0.000000000000e+000
          4.522404520000e-001 5.386010270000e-001 0.000000000000e+000
          4.593241840000e-001 5.538167910000e-001 0.000000000000e+000
          4.014960550000e-001 5.499755270000e-001 0.000000000000e+000
          3.980412370000e-001 5.681797670000e-001 0.000000000000e+000
          4.118653570000e-001 5.818986230000e-001 0.000000000000e+000
          4.290214690000e-001 5.850384460000e-001 0.000000000000e+000
          4.227055460000e-001 5.985109270000e-001 0.000000000000e+000
          4.262176060000e-001 6.109134930000e-001 0.000000000000e+000
          4.083256760000e-001 6.108101250000e-001 0.000000000000e+000
          4.074199840000e-001 1.678065540000e-001 0.000000000000e+000
          4.338525000000e-001 1.367993340000e-001 0.000000000000e+000
          4.419993050000e-001 1.735765240000e-001 0.000000000000e+000
          2.938198300000e-001 3.050000000000e-001 0.000000000000e+000
          3.040856940000e-001 3.370911280000e-001 0.000000000000e+000
          2.728783300000e-001 3.368892400000e-001 0.000000000000e+000
          4.245255210000e-001 6.751478260000e-001 0.000000000000e+000
          4.115146200000e-001 6.706797750000e-001 0.000000000000e+000
          2.172506940000e-001 6.543239900000e-001 0.000000000000e+000
          2.369118240000e-001 6.316770480000e-001 0.000000000000e+000
          2.468783150000e-001 6.519368170000e-001 0.000000000000e+000
          2.564526880000e-001 4.120000000000e-002 0.000000000000e+000
          3.448377420000e-001 6.129073000000e-001 0.000000000000e+000
          3.251379980000e-001 6.268927700000e-001 0.000000000000e+000
          3.273312140000e-001 5.994122080000e-001 0.000000000000e+000
          4.750000000000e-001 3.100000000000e-001 0.000000000000e+000
          4.622391060000e-001 3.191759170000e-001 0.000000000000e+000
          4.632789630000e-001 3.041741210000e-001 0.000000000000e+000
          1.686277520000e-001 5.768153050000e-001 0.000000000000e+000
          1.600733810000e-001 6.057946050000e-001 0.000000000000e+000
          1.336495140000e-001 5.702660460000e-001 0.000000000000e+000
          2.648985480000e-001 2.964243830000e-001 0.000000000000e+000
          4.750000000000e-001 6.810086020000e-001 0.000000000000e+000
          4.639688660000e-001 6.874614690000e-001 0.000000000000e+000
          4.675279960000e-001 6.755881310000e-001 0.000000000000e+000
          1.561569900000e-001 4.415648520000e-001 0.000000000000e+000
          1.171065000000e-001 4.689182860000e-001 0.000000000000e+000
          1.132137760000e-001 4.334105240000e-001 0.000000000000e+000
          4.561931150000e-001 6.630934020000e-001 0.000000000000e+000
          4.518916820000e-001 6.720976590000e-001 0.000000000000e+000
          4.522697350000e-001 6.939175990000e-001 0.000000000000e+000
          4.419733660000e-001 7.008709150000e-001 0.000000000000e+000
          4.414427990000e-001 6.880619320000e-001 0.000000000000e+000
          3.033683560000e-001 5.140865850000e-001 0.000000000000e+000
          2.832124480000e-001 4.946651860000e-001 0.000000000000e+000
          3.072265520000e-001 4.897188920000e-001 0.000000000000e+000
          4.221152260000e-001 2.910297120000e-001 0.000000000000e+000
          4.412966690000e-001 3.014644090000e-001 0.000000000000e+000
          4.299153840000e-001 3.056276890000e-001 0.000000000000e+000
          4.222588150000e-001 2.283775240000e-001 0.000000000000e+000
          4.357605810000e-001 2.536862780000e-001 0.000000000000e+000
          4.167418710000e-001 2.567880820000e-001 0.000000000000e+000
          1.638570440000e-001 1.794837980000e-001 0.000000000000e+000
          1.278151710000e-001 1.656272250000e-001 0.000000000000e+000
          1.617419920000e-001 1.377643790000e-001 0.000000000000e+000
          2.790434020000e-001 5.221415640000e-001 0.000000000000e+000
          1.305952380000e-001 4.029576320000e-001 0.000000000000e+000
          4.451347220000e-001 6.463338270000e-001 0.000000000000e+000
          4.413636270000e-001 6.322598450000e-001 0.000000000000e+000
          0.000000000000e+000 3.322666670000e-001 0.000000000000e+000
          4.030000000000e-002 3.241083040000e-001 0.000000000000e+000
          4.880000000000e-002 3.732204480000e-001 0.000000000000e+000
          4.096990520000e-001 5.970059090000e-001 0.000000000000e+000
          4.359622120000e-001 5.348093080000e-001 0.000000000000e+000
          8.634709500000e-002 1.861646220000e-001 0.000000000000e+000
          3.820000000000e-002 1.828048070000e-001 0.000000000000e+000
          1.912784940000e-001 1.603665230000e-001 0.000000000000e+000
          4.750000000000e-001 4.036036940000e-001 0.000000000000e+000
          4.642303300000e-001 4.105791900000e-001 0.000000000000e+000
          4.598121640000e-001 3.927740700000e-001 0.000000000000e+000
          2.401182360000e-001 6.738008570000e-001 0.000000000000e+000
          4.389592840000e-001 6.755823070000e-001 0.000000000000e+000
          4.750000000000e-001 3.296588890000e-001 0.000000000000e+000
          4.476987140000e-001 5.239335440000e-001 0.000000000000e+000
          0.000000000000e+000 3.797333330000e-001 0.000000000000e+000
          4.375000000000e-001 7.120000000000e-001 0.000000000000e+000
          4.475000000000e-001 7.120000000000e-001 0.000000000000e+000
          3.486106110000e-001 2.026073050000e-001 0.000000000000e+000
          3.165227960000e-001 2.081622480000e-001 0.000000000000e+000
          3.392437750000e-001 1.760088600000e-001 0.000000000000e+000
          3.790988860000e-001 3.453262370000e-001 0.000000000000e+000
          3.655035420000e-001 3.255507720000e-001 0.000000000000e+000
          3.843657540000e-001 3.249187520000e-001 0.000000000000e+000
          3.620975330000e-001 3.560346370000e-001 0.000000000000e+000
          3.512627780000e-001 3.391440580000e-001 0.000000000000e+000
          4.499617050000e-001 5.015835640000e-001 0.000000000000e+000
          4.342350580000e-001 5.014905690000e-001 0.000000000000e+000
          4.442913760000e-001 4.878780550000e-001 0.000000000000e+000
          4.428459580000e-001 5.878250430000e-001 0.000000000000e+000
          4.394391230000e-001 6.029122440000e-001 0.000000000000e+000
          4.750000000000e-001 3.000000000000e-001 0.000000000000e+000
          4.621409500000e-001 2.894091980000e-001 0.000000000000e+000
          2.375000000000e-001 0.000000000000e+000 0.000000000000e+000
          2.850000000000e-001 0.000000000000e+000 0.000000000000e+000
          3.328020250000e-001 1.169160730000e-001 0.000000000000e+000
          2.920212520000e-001 1.188378830000e-001 0.000000000000e+000
          2.291558360000e-001 5.885959210000e-001 0.000000000000e+000
          2.136428270000e-001 5.623651400000e-001 0.000000000000e+000
          2.442775890000e-001 5.609000500000e-001 0.000000000000e+000
          4.064206280000e-001 3.047299530000e-001 0.000000000000e+000
          4.182522270000e-001 3.108563120000e-001 0.000000000000e+000
          4.038465520000e-001 6.986003590000e-001 0.000000000000e+000
          4.028638560000e-001 6.886943560000e-001 0.000000000000e+000
          4.152648770000e-001 6.939116710000e-001 0.000000000000e+000
          3.503991620000e-001 3.921412100000e-001 0.000000000000e+000
          4.163989710000e-001 4.975390480000e-001 0.000000000000e+000
          4.089959850000e-001 4.792894720000e-001 0.000000000000e+000
          4.297013580000e-001 4.845435160000e-001 0.000000000000e+000
          1.264745580000e-001 6.127624150000e-001 0.000000000000e+000
          3.453115380000e-001 3.078956290000e-001 0.000000000000e+000
          3.197761870000e-001 5.295124480000e-001 0.000000000000e+000
          3.558901070000e-001 5.414409190000e-001 0.000000000000e+000
[...]
      <PointData Scalars="LIQUID_PRESSURE">
        <DataArray type="Float64" Name="LIQUID_PRESSURE" format="ascii">
          1.000010771905e+006 1.000010179788e+006 1.000009980730e+006 1.000010924474e+006 1.000004956843e+006 1.000005272126e+006 1.000004869143e+006 1.000005450012e+006 1.000005133768e+006 1.000005222407e+006 1.000002607108e+006 1.000002554856e+006 1.000003002995e+006 1.000005700203e+006 1.000005258121e+006 1.000002774286e+006 1.000007918598e+006 1.000007719889e+006 1.000007532770e+006 1.000027261091e+006 1.000010581995e+006 1.000010351843e+006 1.000007049183e+006 1.000006784525e+006 1.000006893220e+006 1.000006535463e+006 1.000008168388e+006 1.000005232142e+006 1.000005428722e+006 1.000005131479e+006 1.000005277034e+006 1.000004942882e+006 1.000004650575e+006 1.000004550479e+006 1.000004266755e+006 1.000003976908e+006 1.000004049907e+006 1.000011615621e+006 1.000012109186e+006 1.000011543417e+006 1.000009516239e+006 1.000008990423e+006 1.000009016760e+006 1.000002182289e+006 1.000002478065e+006 1.000004650689e+006 1.000004418850e+006 1.000004452856e+006 1.000025955246e+006 1.000004286405e+006 1.000004114885e+006 1.000004593677e+006 1.000009389849e+006 1.000009226935e+006 1.000009477191e+006 1.000005366663e+006 1.000004919785e+006 1.000005535686e+006 1.000009674401e+006 1.000002195380e+006 1.000003894217e+006 1.000001923085e+006 1.000007454811e+006 1.000007072344e+006 1.000007618616e+006 1.000002488376e+006 1.000002144971e+006 1.000006695956e+006 1.000006298938e+006 1.000002152830e+006 1.000006086276e+006 1.000006441515e+006 1.000006483555e+006 1.000009687420e+006 1.000009516165e+006 1.000009448775e+006 1.000010695966e+006 1.000010290889e+006 1.000010241295e+006 1.000011621111e+006 1.000011854482e+006 1.000012338426e+006 1.000006001317e+006 1.000008078958e+006 1.000003033878e+006 1.000003414714e+006 1.000009231694e+006 1.000009356991e+006 1.000008582876e+006 1.000004338552e+006 1.000005513591e+006 1.000011560555e+006 1.000011617201e+006 1.000011871089e+006 1.000007812871e+006 1.000007694818e+006 1.000007996938e+006 1.000001856117e+006 1.000002020468e+006 1.000009051694e+006 1.000005704010e+006 1.000008487386e+006 1.000000000000e+006 1.000000000000e+006 1.000011118020e+006 1.000011056092e+006 1.000011533042e+006 1.000008811591e+006 1.000009141695e+006 1.000009144077e+006 1.000008644204e+006 1.000008927062e+006 1.000006109464e+006 1.000006119876e+006 1.000006357143e+006 1.000004454754e+006 1.000004123025e+006 1.000009553861e+006 1.000009714161e+006 9.999474951659e+005 9.999459562346e+005 1.000012659062e+006 1.000012865731e+006 1.000005065504e+006 1.000005500569e+006 1.000005457270e+006 1.000009467078e+006 1.000009364826e+006 1.000022630338e+006 1.000005486724e+006 1.000011293514e+006 1.000008055853e+006 1.000006204066e+006 1.000006531447e+006 1.000006424093e+006 1.000004753614e+006 1.000009438716e+006 1.000005795862e+006 1.000005514324e+006 1.000005662333e+006 1.000006102446e+006 1.000005934906e+006 1.000006270490e+006 9.999574814623e+005 1.000018850879e+006 1.000035108839e+006 1.000007377322e+006 1.000007100849e+006 1.000007121084e+006 1.000002078600e+006 1.000003933019e+006 1.000003899209e+006 1.000005835722e+006 1.000007987897e+006 1.000008193605e+006 1.000007870881e+006 1.000004552150e+006 1.000005096365e+006 1.000005560898e+006 1.000006697863e+006 1.000012347406e+006 1.000013153393e+006 1.000012347250e+006 1.000002563353e+006 1.000002982767e+006 1.000002959920e+006 1.000002926846e+006 1.000003213868e+006 1.000004044742e+006 1.000003734902e+006 1.000007095242e+006 1.000007338000e+006 1.000007436801e+006 9.999948932912e+005 1.000006811721e+006 1.000007241062e+006 1.000008427074e+006 1.000006172527e+006 1.000005947107e+006 1.000009785235e+006 1.000008631068e+006 1.000008035693e+006 1.000006191144e+006 1.000006459099e+006 1.000006077333e+006 1.000004973684e+006 1.000007705322e+006 1.000009852571e+006 1.000003363794e+006 1.000009987343e+006 1.000008043956e+006 1.000007030070e+006 1.000007516772e+006 1.000006766662e+006 1.000012434789e+006 1.000011818429e+006 1.000007728159e+006 1.000007417930e+006 1.000006579259e+006 1.000006639696e+006 1.000037389703e+006 1.000004477752e+006 1.000011494215e+006 1.000009878348e+006 1.000009905629e+006 1.000009374117e+006 1.000009151100e+006 1.000009277140e+006 9.999204020645e+005 1.000002097264e+006 1.000010495666e+006 1.000007176279e+006 1.000008732593e+006 1.000008684956e+006 1.000008946775e+006 1.000004231014e+006 1.000003838320e+006 1.000003818282e+006 1.000006872439e+006 1.000009384188e+006 1.000008021148e+006 1.000008660326e+006 1.000004681094e+006 1.000027671756e+006 1.000006914176e+006 1.000010326789e+006 1.000010109784e+006 1.000009915505e+006 1.000020463832e+006 1.000023478486e+006 1.000006968854e+006 1.000006518430e+006 1.000006275421e+006 1.000010544028e+006 1.000009673728e+006 1.000003784161e+006 1.000009633585e+006 1.000002368628e+006 1.000000896008e+006 1.000012033492e+006 1.000001172644e+006 1.000008113858e+006 1.000008430964e+006 1.000003186311e+006 1.000006527784e+006 1.000012736227e+006 1.000005829571e+006 1.000011415859e+006 1.000003784527e+006 1.000004410950e+006 1.000002687476e+006 1.000002036066e+006 1.000011084890e+006 1.000007463029e+006 1.000011827547e+006 1.000009295085e+006 1.000009010236e+006 1.000008904371e+006 1.000008484398e+006 1.000011740821e+006 1.000012039157e+006 1.000007602245e+006 1.000009069816e+006 1.000011030375e+006 1.000010771788e+006 1.000010575826e+006 1.000011788633e+006 1.000011326887e+006 1.000010452110e+006 1.000104749247e+006 1.000100449640e+006 1.000010451173e+006 1.000005381879e+006 1.000010851389e+006 1.000012743027e+006 1.000003367090e+006 1.000012870911e+006 1.000004003323e+006 1.000008466467e+006 1.000005582806e+006 1.000005758873e+006 1.000004895961e+006 1.000008714853e+006 1.000008584828e+006 1.000006717300e+006 1.000006880709e+006 1.000007209013e+006 1.000010482458e+006 1.000010982924e+006 9.999445256906e+005 1.000025624958e+006 1.000007884848e+006 1.000010562528e+006 1.000011174351e+006 1.000010998556e+006 1.000005035832e+006 1.000004863702e+006 1.000008297098e+006 1.000004117210e+006 1.000009016760e+006 1.000008782932e+006 1.000005937994e+006 1.000007754372e+006 1.000004841977e+006 1.000004915903e+006 1.000003718138e+006 1.000012160543e+006 1.000010157516e+006 1.000010657554e+006 1.000010177137e+006 1.000004142029e+006 1.000003543516e+006 1.000006373338e+006 1.000005444790e+006 1.000004356913e+006 1.000004083065e+006 1.000005728642e+006 1.000005345208e+006 1.000005287288e+006 1.000005406728e+006 1.000008090196e+006 1.000012561936e+006 1.000003574217e+006 1.000003199261e+006 1.000009677298e+006 1.000058668472e+006 9.999898260491e+005 1.000078036769e+006 1.000004701808e+006 1.000012318834e+006 1.000008348431e+006 1.000004718445e+006 1.000001034068e+006 1.000007320670e+006 1.000005122464e+006 1.000005597618e+006 1.000006256312e+006 1.000006452394e+006 1.000007570999e+006 1.000005014621e+006 1.000008384943e+006 1.000007694495e+006 1.000007722151e+006 1.000005937674e+006 1.000008539998e+006 1.000007439761e+006 1.000006778050e+006 1.000005829203e+006 1.000010498117e+006 1.000003457049e+006 1.000006321637e+006 1.000003520298e+006 1.000003512096e+006 1.000003277355e+006 1.000012226076e+006 1.000009470095e+006 1.000009833953e+006 1.000004039585e+006 1.000009180218e+006 1.000002413236e+006 1.000002769050e+006 1.000003756554e+006 1.000011733413e+006 1.000012604466e+006 1.000016978774e+006 1.000005983905e+006 1.000006385976e+006 1.000005564074e+006 1.000020586481e+006 1.000005844146e+006 1.000007107895e+006 1.000007530375e+006 1.000009404156e+006 1.000006305299e+006 1.000006276246e+006 1.000004836812e+006 1.000004313633e+006 1.000004589579e+006 1.000005525722e+006 1.000007141540e+006 1.000003274478e+006 1.000008073584e+006 1.000008905857e+006 1.000012653862e+006 1.000006408642e+006 1.000005558597e+006 1.000005626718e+006 1.000024954088e+006 1.000008036239e+006 9.999994379561e+005 1.000007678324e+006 1.000022439459e+006 1.000010146023e+006 1.000008825271e+006 1.000003703436e+006 1.000005564010e+006 1.000005945633e+006 1.000003873094e+006 1.000003576616e+006 1.000003736117e+006 1.000010547929e+006 1.000012608024e+006 1.000006769144e+006 1.000005527344e+006 1.000011521082e+006 1.000004069445e+006 1.000005101835e+006 1.000010808575e+006 1.000005197477e+006 1.000008326084e+006 1.000026401629e+006 1.000010567381e+006 1.000010323255e+006 1.000004543205e+006 1.000005765747e+006 1.000004639302e+006 1.000008549868e+006 1.000008420378e+006 1.000004820342e+006 1.000002393881e+006 1.000007664297e+006 1.000004991310e+006 1.000004065312e+006 1.000002900135e+006 1.000006286374e+006 1.000009911282e+006 1.000010173645e+006 1.000003198263e+006 1.000009145686e+006 1.000007740199e+006 1.000097945672e+006 1.000092052070e+006 1.000009232079e+006 1.000008440444e+006 1.000003238755e+006 1.000094087209e+006 9.999887039959e+005 1.000009681928e+006 1.000009142934e+006 1.000009260807e+006 1.000012899339e+006 1.000011739268e+006 1.000011160309e+006 1.000007225887e+006 1.000006939282e+006 1.000005151259e+006 9.999926565290e+005 1.000003867426e+006 9.999539910446e+005 1.000011281773e+006 1.000004877767e+006 1.000004001264e+006 1.000003551227e+006 1.000004454557e+006 1.000004592975e+006 1.000028592508e+006 1.000007984571e+006 1.000005964745e+006 1.000011000047e+006 1.000004342269e+006 1.000007601572e+006 9.999344611092e+005 1.000008504106e+006 1.000005828182e+006 1.000007333661e+006 1.000002811459e+006 1.000002127406e+006 1.000009668971e+006 1.000011934837e+006 1.000011153110e+006 1.000008262405e+006 1.000002866992e+006 1.000010789157e+006 1.000011203741e+006 1.000010581542e+006 1.000009970353e+006 9.999991702549e+005 1.000010021327e+006 1.000009991986e+006 1.000006809471e+006 1.000006812985e+006 1.000012014614e+006 1.000006144807e+006 1.000010709736e+006 1.000006763103e+006 1.000010192860e+006 1.000004737410e+006 1.000011991179e+006 1.000002520658e+006 1.000004268531e+006 1.000010870033e+006 1.000105960016e+006 1.000006853995e+006 1.000082898706e+006 1.000009065933e+006 1.000101491498e+006 1.000003330625e+006 1.000087253779e+006 1.000008938694e+006 1.000002961823e+006 1.000004727037e+006 9.999483043359e+005 1.000020111700e+006 1.000027467826e+006 1.000012372320e+006 1.000007156317e+006 1.000008410736e+006 1.000004204493e+006 1.000003156210e+006 1.000106278755e+006 1.000095045708e+006 1.000017499037e+006 1.000006197918e+006 1.000005848143e+006 1.000004293482e+006 1.000008711878e+006 1.000008525596e+006 1.000104351676e+006 1.000103829235e+006 1.000048771967e+006 1.000010612821e+006 1.000034682917e+006 1.000104564681e+006 1.000040423657e+006 1.000003452562e+006 1.000011036857e+006 1.000004559339e+006 1.000037064133e+006 1.000001872797e+006 1.000006656937e+006 1.000013155049e+006 9.999324176520e+005 1.000007972537e+006 1.000088160867e+006 1.000012425576e+006 1.000107923423e+006 1.000007517045e+006 1.000003399839e+006 1.000003567909e+006 1.000003477886e+006 1.000105672388e+006 1.000011405054e+006 1.000004676692e+006 1.000004288672e+006 1.000006518458e+006 1.000107030701e+006 1.000028520417e+006 1.000000855314e+006 1.000008089328e+006 1.000008470642e+006 1.000005698792e+006 1.000002616736e+006 1.000002156102e+006 9.999996161746e+005 1.000008625660e+006 1.000008758005e+006 9.999559899238e+005 1.000019705121e+006 9.999310405941e+005 1.000008620296e+006 1.000010976292e+006 1.000046767965e+006 1.000017604627e+006 1.000005008307e+006 1.000008123474e+006 1.000007348213e+006 1.000008039055e+006 1.000095141983e+006 1.000052192728e+006 1.000011265386e+006 1.000011497266e+006 1.000002174728e+006 1.000006378176e+006 1.000004880820e+006 1.000010749264e+006 1.000004166642e+006 1.000013120938e+006 1.000008329756e+006 1.000008264701e+006 1.000004638693e+006 1.000003154984e+006 1.000006623258e+006 1.000006915653e+006 1.000010276924e+006 1.000005978848e+006 1.000009829041e+006 1.000012479834e+006 1.000004537474e+006 1.000008093976e+006 1.000010435341e+006 1.000009812401e+006 1.000009418849e+006 1.000012576970e+006 1.000009786100e+006 1.000007113855e+006 1.000009934558e+006 1.000009556358e+006 1.000010048662e+006 1.000004759335e+006 1.000004901838e+006 1.000010160495e+006 
        </DataArray>
        <DataArray type="Float64" Name="MEAN_PRESSURE" format="ascii">