<?xml version="1.0"?>
<VTKFile type="UnstructuredGrid" version="0.1" byte_order="LittleEndian">
  <UnstructuredGrid>
    <Piece NumberOfPoints="387" NumberOfCells="662">
      <Points>
        <DataArray type="Float64" NumberOfComponents="3" format="ascii">
          0.000000000000e+000 0.000000000000e+000 0.000000000000e+000
          1.000000000000e+000 0.000000000000e+000 0.000000000000e+000
          1.000000000000e+000 1.000000000000e-001 0.000000000000e+000
          0.000000000000e+000 1.000000000000e-001 0.000000000000e+000
          5.000000000000e-001 0.000000000000e+000 0.000000000000e+000
          5.000000000000e-001 1.000000000000e-001 0.000000000000e+000
          1.999999999996e-002 0.000000000000e+000 0.000000000000e+000
          3.999999999992e-002 0.000000000000e+000 0.000000000000e+000
          5.999999999989e-002 0.000000000000e+000 0.000000000000e+000
          7.999999999984e-002 0.000000000000e+000 0.000000000000e+000
          9.999999999978e-002 0.000000000000e+000 0.000000000000e+000
          1.199999999997e-001 0.000000000000e+000 0.000000000000e+000
          1.399999999997e-001 0.000000000000e+000 0.000000000000e+000
          1.599999999996e-001 0.000000000000e+000 0.000000000000e+000
          1.799999999995e-001 0.000000000000e+000 0.000000000000e+000
          1.999999999995e-001 0.000000000000e+000 0.000000000000e+000
          2.199999999994e-001 0.000000000000e+000 0.000000000000e+000
          2.399999999994e-001 0.000000000000e+000 0.000000000000e+000
          2.599999999994e-001 0.000000000000e+000 0.000000000000e+000
          2.799999999994e-001 0.000000000000e+000 0.000000000000e+000
          2.999999999995e-001 0.000000000000e+000 0.000000000000e+000
          3.199999999995e-001 0.000000000000e+000 0.000000000000e+000
          3.399999999996e-001 0.000000000000e+000 0.000000000000e+000
          3.599999999996e-001 0.000000000000e+000 0.000000000000e+000
          3.799999999997e-001 0.000000000000e+000 0.000000000000e+000
          3.999999999997e-001 0.000000000000e+000 0.000000000000e+000
          4.199999999998e-001 0.000000000000e+000 0.000000000000e+000
          4.399999999998e-001 0.000000000000e+000 0.000000000000e+000
          4.599999999999e-001 0.000000000000e+000 0.000000000000e+000
          4.799999999999e-001 0.000000000000e+000 0.000000000000e+000
          5.000000000000e-001 8.000000000006e-002 0.000000000000e+000
          5.000000000000e-001 6.000000000011e-002 0.000000000000e+000
          5.000000000000e-001 4.000000000011e-002 0.000000000000e+000
          5.000000000000e-001 2.000000000005e-002 0.000000000000e+000
          4.799999999999e-001 1.000000000000e-001 0.000000000000e+000
          4.599999999998e-001 1.000000000000e-001 0.000000000000e+000
          4.399999999998e-001 1.000000000000e-001 0.000000000000e+000
          4.199999999999e-001 1.000000000000e-001 0.000000000000e+000
          4.000000000000e-001 1.000000000000e-001 0.000000000000e+000
          3.800000000001e-001 1.000000000000e-001 0.000000000000e+000
          3.600000000003e-001 1.000000000000e-001 0.000000000000e+000
          3.400000000004e-001 1.000000000000e-001 0.000000000000e+000
          3.200000000006e-001 1.000000000000e-001 0.000000000000e+000
          3.000000000007e-001 1.000000000000e-001 0.000000000000e+000
          2.800000000008e-001 1.000000000000e-001 0.000000000000e+000
          2.600000000010e-001 1.000000000000e-001 0.000000000000e+000
          2.400000000010e-001 1.000000000000e-001 0.000000000000e+000
          2.200000000009e-001 1.000000000000e-001 0.000000000000e+000
          2.000000000008e-001 1.000000000000e-001 0.000000000000e+000
          1.800000000007e-001 1.000000000000e-001 0.000000000000e+000
          1.600000000007e-001 1.000000000000e-001 0.000000000000e+000
          1.400000000006e-001 1.000000000000e-001 0.000000000000e+000
          1.200000000005e-001 1.000000000000e-001 0.000000000000e+000
          1.000000000004e-001 1.000000000000e-001 0.000000000000e+000
          8.000000000033e-002 1.000000000000e-001 0.000000000000e+000
          6.000000000025e-002 1.000000000000e-001 0.000000000000e+000
          4.000000000017e-002 1.000000000000e-001 0.000000000000e+000
          2.000000000008e-002 1.000000000000e-001 0.000000000000e+000
          0.000000000000e+000 8.000000000006e-002 0.000000000000e+000
          0.000000000000e+000 6.000000000011e-002 0.000000000000e+000
          0.000000000000e+000 4.000000000011e-002 0.000000000000e+000
          0.000000000000e+000 2.000000000005e-002 0.000000000000e+000
          5.200000000000e-001 0.000000000000e+000 0.000000000000e+000
          5.400000000000e-001 0.000000000000e+000 0.000000000000e+000
          5.600000000000e-001 0.000000000000e+000 0.000000000000e+000
          5.800000000000e-001 0.000000000000e+000 0.000000000000e+000
          6.000000000000e-001 0.000000000000e+000 0.000000000000e+000
          6.200000000000e-001 0.000000000000e+000 0.000000000000e+000
          6.400000000000e-001 0.000000000000e+000 0.000000000000e+000
          6.600000000000e-001 0.000000000000e+000 0.000000000000e+000
          6.800000000000e-001 0.000000000000e+000 0.000000000000e+000
          7.000000000000e-001 0.000000000000e+000 0.000000000000e+000
          7.200000000000e-001 0.000000000000e+000 0.000000000000e+000
          7.400000000000e-001 0.000000000000e+000 0.000000000000e+000
          7.600000000000e-001 0.000000000000e+000 0.000000000000e+000
          7.800000000000e-001 0.000000000000e+000 0.000000000000e+000
          8.000000000000e-001 0.000000000000e+000 0.000000000000e+000
          8.200000000000e-001 0.000000000000e+000 0.000000000000e+000
          8.400000000000e-001 0.000000000000e+000 0.000000000000e+000
          8.600000000000e-001 0.000000000000e+000 0.000000000000e+000
          8.800000000000e-001 0.000000000000e+000 0.000000000000e+000
          9.000000000000e-001 0.000000000000e+000 0.000000000000e+000
          9.200000000000e-001 0.000000000000e+000 0.000000000000e+000
          9.400000000000e-001 0.000000000000e+000 0.000000000000e+000
          9.600000000000e-001 0.000000000000e+000 0.000000000000e+000
          9.800000000000e-001 0.000000000000e+000 0.000000000000e+000
          1.000000000000e+000 1.999999999996e-002 0.000000000000e+000
          1.000000000000e+000 3.999999999990e-002 0.000000000000e+000
          1.000000000000e+000 5.999999999989e-002 0.000000000000e+000
          1.000000000000e+000 7.999999999995e-002 0.000000000000e+000
          9.800000000000e-001 1.000000000000e-001 0.000000000000e+000
          9.600000000000e-001 1.000000000000e-001 0.000000000000e+000
          9.400000000000e-001 1.000000000000e-001 0.000000000000e+000
          9.200000000000e-001 1.000000000000e-001 0.000000000000e+000
          9.000000000000e-001 1.000000000000e-001 0.000000000000e+000
          8.800000000000e-001 1.000000000000e-001 0.000000000000e+000
          8.600000000000e-001 1.000000000000e-001 0.000000000000e+000
          8.400000000000e-001 1.000000000000e-001 0.000000000000e+000
          8.200000000000e-001 1.000000000000e-001 0.000000000000e+000
          8.000000000000e-001 1.000000000000e-001 0.000000000000e+000
          7.800000000000e-001 1.000000000000e-001 0.000000000000e+000
          7.600000000000e-001 1.000000000000e-001 0.000000000000e+000
          7.400000000000e-001 1.000000000000e-001 0.000000000000e+000
          7.200000000000e-001 1.000000000000e-001 0.000000000000e+000
          7.000000000000e-001 1.000000000000e-001 0.000000000000e+000
          6.800000000000e-001 1.000000000000e-001 0.000000000000e+000
          6.600000000000e-001 1.000000000000e-001 0.000000000000e+000
          6.400000000000e-001 1.000000000000e-001 0.000000000000e+000
          6.200000000000e-001 1.000000000000e-001 0.000000000000e+000
          6.000000000000e-001 1.000000000000e-001 0.000000000000e+000
          5.800000000000e-001 1.000000000000e-001 0.000000000000e+000
          5.600000000000e-001 1.000000000000e-001 0.000000000000e+000
          5.400000000000e-001 1.000000000000e-001 0.000000000000e+000
          5.200000000000e-001 1.000000000000e-001 0.000000000000e+000
          4.084305592760e-001 5.012763659432e-002 0.000000000000e+000
          3.502249768756e-001 4.975133515529e-002 0.000000000000e+000
          2.911649600395e-001 4.951806786752e-002 0.000000000000e+000
          6.923753690510e-002 4.780818499661e-002 0.000000000000e+000
          1.297750231244e-001 5.024866484471e-002 0.000000000000e+000
          1.882013060604e-001 5.048193213241e-002 0.000000000000e+000
          2.400000000008e-001 5.000000000000e-002 0.000000000000e+000
          4.537926382358e-001 5.000000000008e-002 0.000000000000e+000
          3.551375885801e-002 3.592022007521e-002 0.000000000000e+000
          3.796067227687e-001 6.564517316999e-002 0.000000000000e+000
          3.200000000006e-001 6.600000000015e-002 0.000000000000e+000
          9.999999999977e-002 3.399999999993e-002 0.000000000000e+000
          1.599999999996e-001 3.399999999992e-002 0.000000000000e+000
          3.205599194176e-001 3.379371176889e-002 0.000000000000e+000
          3.800032912375e-001 3.367628964501e-002 0.000000000000e+000
          1.594400805827e-001 6.620628823104e-002 0.000000000000e+000
          9.719848140856e-002 6.775398276738e-002 0.000000000000e+000
          3.148437500006e-002 6.851562500000e-002 0.000000000000e+000
          2.147293403054e-001 6.719379946272e-002 0.000000000000e+000
          2.147293403055e-001 3.280620053727e-002 0.000000000000e+000
          2.650000000008e-001 3.099999999988e-002 0.000000000000e+000
          2.649144472232e-001 6.917307889173e-002 0.000000000000e+000
          4.327777777777e-001 7.033333333333e-002 0.000000000000e+000
          4.327777777778e-001 2.966666666672e-002 0.000000000000e+000
          4.723554040837e-001 2.567439940512e-002 0.000000000000e+000
[...]
      <PointData Scalars="LIQUID_PRESSURE">
        <DataArray type="Float64" Name="LIQUID_PRESSURE" format="ascii">
          0.000000000000e+000 1.000000000000e+006 1.000000000000e+006 0.000000000000e+000 0.000000000000e+000 0.000000000000e+000 0.000000000000e+000 0.000000000000e+000 0.000000000000e+000 0.000000000000e+000 0.000000000000e+000 0.000000000000e+000 0.000000000000e+000 0.000000000000e+000 0.000000000000e+000 0.000000000000e+000 0.000000000000e+000 0.000000000000e+000 0.000000000000e+000 0.000000000000e+000 0.000000000000e+000 0.000000000000e+000 0.000000000000e+000 0.000000000000e+000 0.000000000000e+000 0.000000000000e+000 0.000000000000e+000 0.000000000000e+000 0.000000000000e+000 0.000000000000e+000 0.000000000000e+000 0.000000000000e+000 0.000000000000e+000 0.000000000000e+000 0.000000000000e+000 0.000000000000e+000 0.000000000000e+000 0.000000000000e+000 0.000000000000e+000 0.000000000000e+000 0.000000000000e+000 0.000000000000e+000 0.000000000000e+000 0.000000000000e+000 0.000000000000e+000 0.000000000000e+000 0.000000000000e+000 0.000000000000e+000 0.000000000000e+000 0.000000000000e+000 0.000000000000e+000 0.000000000000e+000 0.000000000000e+000 0.000000000000e+000 0.000000000000e+000 0.000000000000e+000 0.000000000000e+000 0.000000000000e+000 0.000000000000e+000 0.000000000000e+000 0.000000000000e+000 0.000000000000e+000 0.000000000000e+000 0.000000000000e+000 0.000000000000e+000 0.000000000000e+000 0.000000000000e+000 0.000000000000e+000 0.000000000000e+000 0.000000000000e+000 0.000000000000e+000 0.000000000000e+000 0.000000000000e+000 0.000000000000e+000 0.000000000000e+000 0.000000000000e+000 0.000000000000e+000 0.000000000000e+000 0.000000000000e+000 0.000000000000e+000 0.000000000000e+000 0.000000000000e+000 0.000000000000e+000 0.000000000000e+000 0.000000000000e+000 0.000000000000e+000 1.000000000000e+006 1.000000000000e+006 1.000000000000e+006 1.000000000000e+006 0.000000000000e+000 0.000000000000e+000 0.000000000000e+000 0.000000000000e+000 0.000000000000e+000 0.000000000000e+000 0.000000000000e+000 0.000000000000e+000 0.000000000000e+000 0.000000000000e+000 0.000000000000e+000 0.000000000000e+000 0.000000000000e+000 0.000000000000e+000 0.000000000000e+000 0.000000000000e+000 0.000000000000e+000 0.000000000000e+000 0.000000000000e+000 0.000000000000e+000 0.000000000000e+000 0.000000000000e+000 0.000000000000e+000 0.000000000000e+000 0.000000000000e+000 0.000000000000e+000 0.000000000000e+000 0.000000000000e+000 0.000000000000e+000 0.000000000000e+000 0.000000000000e+000 0.000000000000e+000 0.000000000000e+000 0.000000000000e+000 0.000000000000e+000 0.000000000000e+000 0.000000000000e+000 0.000000000000e+000 0.000000000000e+000 0.000000000000e+000 0.000000000000e+000 0.000000000000e+000 0.000000000000e+000 0.000000000000e+000 0.000000000000e+000 0.000000000000e+000 0.000000000000e+000 0.000000000000e+000 0.000000000000e+000 0.000000000000e+000 0.000000000000e+000 0.000000000000e+000 0.000000000000e+000 0.000000000000e+000 0.000000000000e+000 0.000000000000e+000 0.000000000000e+000 0.000000000000e+000 0.000000000000e+000 0.000000000000e+000 0.000000000000e+000 0.000000000000e+000 0.000000000000e+000 0.000000000000e+000 0.000000000000e+000 0.000000000000e+000 0.000000000000e+000 0.000000000000e+000 0.000000000000e+000 0.000000000000e+000 0.000000000000e+000 0.000000000000e+000 0.000000000000e+000 0.000000000000e+000 0.000000000000e+000 0.000000000000e+000 0.000000000000e+000 0.000000000000e+000 0.000000000000e+000 0.000000000000e+000 0.000000000000e+000 0.000000000000e+000 0.000000000000e+000 0.000000000000e+000 0.000000000000e+000 0.000000000000e+000 0.000000000000e+000 0.000000000000e+000 0.000000000000e+000 0.000000000000e+000 0.000000000000e+000 0.000000000000e+000 0.000000000000e+000 0.000000000000e+000 0.000000000000e+000 0.000000000000e+000 0.000000000000e+000 0.000000000000e+000 0.000000000000e+000 0.000000000000e+000 0.000000000000e+000 0.000000000000e+000 0.000000000000e+000 0.000000000000e+000 0.000000000000e+000 0.000000000000e+000 0.000000000000e+000 0.000000000000e+000 0.000000000000e+000 0.000000000000e+000 0.000000000000e+000 0.000000000000e+000 0.000000000000e+000 0.000000000000e+000 0.000000000000e+000 0.000000000000e+000 0.000000000000e+000 0.000000000000e+000 0.000000000000e+000 0.000000000000e+000 0.000000000000e+000 0.000000000000e+000 0.000000000000e+000 0.000000000000e+000 0.000000000000e+000 0.000000000000e+000 0.000000000000e+000 0.000000000000e+000 0.000000000000e+000 0.000000000000e+000 0.000000000000e+000 0.000000000000e+000 0.000000000000e+000 0.000000000000e+000 0.000000000000e+000 0.000000000000e+000 0.000000000000e+000 0.000000000000e+000 0.000000000000e+000 0.000000000000e+000 0.000000000000e+000 0.000000000000e+000 0.000000000000e+000 0.000000000000e+000 0.000000000000e+000 0.000000000000e+000 0.000000000000e+000 0.000000000000e+000 0.000000000000e+000 0.000000000000e+000 0.000000000000e+000 0.000000000000e+000 0.000000000000e+000 0.000000000000e+000 0.000000000000e+000 0.000000000000e+000 0.000000000000e+000 0.000000000000e+000 0.000000000000e+000 0.000000000000e+000 0.000000000000e+000 0.000000000000e+000 0.000000000000e+000 0.000000000000e+000 0.000000000000e+000 0.000000000000e+000 0.000000000000e+000 0.000000000000e+000 0.000000000000e+000 0.000000000000e+000 0.000000000000e+000 0.000000000000e+000 0.000000000000e+000 0.000000000000e+000 0.000000000000e+000 0.000000000000e+000 0.000000000000e+000 0.000000000000e+000 0.000000000000e+000 0.000000000000e+000 0.000000000000e+000 0.000000000000e+000 0.000000000000e+000 0.000000000000e+000 0.000000000000e+000 0.000000000000e+000 0.000000000000e+000 0.000000000000e+000 0.000000000000e+000 0.000000000000e+000 0.000000000000e+000 0.000000000000e+000 0.000000000000e+000 0.000000000000e+000 0.000000000000e+000 0.000000000000e+000 0.000000000000e+000 0.000000000000e+000 0.000000000000e+000 0.000000000000e+000 0.000000000000e+000 0.000000000000e+000 0.000000000000e+000 0.000000000000e+000 0.000000000000e+000 0.000000000000e+000 0.000000000000e+000 0.000000000000e+000 0.000000000000e+000 0.000000000000e+000 0.000000000000e+000 0.000000000000e+000 0.000000000000e+000 0.000000000000e+000 0.000000000000e+000 0.000000000000e+000 0.000000000000e+000 0.000000000000e+000 0.000000000000e+000 0.000000000000e+000 0.000000000000e+000 0.000000000000e+000 0.000000000000e+000 0.000000000000e+000 0.000000000000e+000 0.000000000000e+000 0.000000000000e+000 0.000000000000e+000 0.000000000000e+000 0.000000000000e+000 0.000000000000e+000 0.000000000000e+000 0.000000000000e+000 0.000000000000e+000 0.000000000000e+000 0.000000000000e+000 0.000000000000e+000 0.000000000000e+000 0.000000000000e+000 0.000000000000e+000 0.000000000000e+000 0.000000000000e+000 0.000000000000e+000 0.000000000000e+000 0.000000000000e+000 0.000000000000e+000 0.000000000000e+000 0.000000000000e+000 0.000000000000e+000 0.000000000000e+000 0.000000000000e+000 0.000000000000e+000 0.000000000000e+000 0.000000000000e+000 0.000000000000e+000 0.000000000000e+000 0.000000000000e+000 0.000000000000e+000 0.000000000000e+000 0.000000000000e+000 0.000000000000e+000 0.000000000000e+000 0.000000000000e+000 0.000000000000e+000 0.000000000000e+000 0.000000000000e+000 0.000000000000e+000 0.000000000000e+000 0.000000000000e+000 0.000000000000e+000 0.000000000000e+000 0.000000000000e+000 0.000000000000e+000 0.000000000000e+000 0.000000000000e+000 0.000000000000e+000 0.000000000000e+000 0.000000000000e+000 0.000000000000e+000 0.000000000000e+000 0.000000000000e+000 0.000000000000e+000 0.000000000000e+000 0.000000000000e+000 0.000000000000e+000 0.000000000000e+000 0.000000000000e+000 0.000000000000e+000 0.000000000000e+000 0.000000000000e+000 0.000000000000e+000 0.000000000000e+000 0.000000000000e+000 0.000000000000e+000 0.000000000000e+000 0.000000000000e+000 0.000000000000e+000 
        </DataArray>
        <DataArray type="Float64" Name="MOLAR_FRACTION" format="ascii">
          0.000000000000e+000 1.683000000000e-002 1.683000000000e-002 0.000000000000e+000 0.000000000000e+000 0.000000000000e+000 0.000000000000e+000 0.000000000000e+000 0.000000000000e+000 0.000000000000e+000 0.000000000000e+000 0.000000000000e+000 0.000000000000e+000 0.000000000000e+000 0.000000000000e+000 0.000000000000e+000 0.000000000000e+000 0.000000000000e+000 0.000000000000e+000 0.000000000000e+000 0.000000000000e+000 0.000000000000e+000 0.000000000000e+000 0.000000000000e+000 0.000000000000e+000 0.000000000000e+000 0.000000000000e+000 0.000000000000e+000 0.000000000000e+000 0.000000000000e+000 0.000000000000e+000 0.000000000000e+000 0.000000000000e+000 0.000000000000e+000 0.000000000000e+000 0.000000000000e+000 0.000000000000e+000 0.000000000000e+000 0.000000000000e+000 0.000000000000e+000 0.000000000000e+000 0.000000000000e+000 0.000000000000e+000 0.000000000000e+000 0.000000000000e+000 0.000000000000e+000 0.000000000000e+000 0.000000000000e+000 0.000000000000e+000 0.000000000000e+000 0.000000000000e+000 0.000000000000e+000 0.000000000000e+000 0.000000000000e+000 0.000000000000e+000 0.000000000000e+000 0.000000000000e+000 0.000000000000e+000 0.000000000000e+000 0.000000000000e+000 0.000000000000e+000 0.000000000000e+000 0.000000000000e+000 0.000000000000e+000 0.000000000000e+000 0.000000000000e+000 0.000000000000e+000 0.000000000000e+000 0.000000000000e+000 0.000000000000e+000 0.000000000000e+000 0.000000000000e+000 0.000000000000e+000 0.000000000000e+000 0.000000000000e+000 0.000000000000e+000 0.000000000000e+000 0.000000000000e+000 0.000000000000e+000 0.000000000000e+000 0.000000000000e+000 0.000000000000e+000 0.000000000000e+000 0.000000000000e+000 0.000000000000e+000 0.000000000000e+000 1.683000000000e-002 1.683000000000e-002 1.683000000000e-002 1.683000000000e-002 0.000000000000e+000 0.000000000000e+000 0.000000000000e+000 0.000000000000e+000 0.000000000000e+000 0.000000000000e+000 0.000000000000e+000 0.000000000000e+000 0.000000000000e+000 0.000000000000e+000 0.000000000000e+000 0.000000000000e+000 0.000000000000e+000 0.000000000000e+000 0.000000000000e+000 0.000000000000e+000 0.000000000000e+000 0.000000000000e+000 0.000000000000e+000 0.000000000000e+000 0.000000000000e+000 0.000000000000e+000 0.000000000000e+000 0.000000000000e+000 0.000000000000e+000 0.000000000000e+000 0.000000000000e+000 0.000000000000e+000 0.000000000000e+000 0.000000000000e+000 0.000000000000e+000 0.000000000000e+000 0.000000000000e+000 0.000000000000e+000 0.000000000000e+000 0.000000000000e+000 0.000000000000e+000 0.000000000000e+000 0.000000000000e+000 0.000000000000e+000 0.000000000000e+000 0.000000000000e+000 0.000000000000e+000 0.000000000000e+000 0.000000000000e+000 0.000000000000e+000 0.000000000000e+000 0.000000000000e+000 0.000000000000e+000 0.000000000000e+000 0.000000000000e+000 0.000000000000e+000 0.000000000000e+000 0.000000000000e+000 0.000000000000e+000 0.000000000000e+000 0.000000000000e+000 0.000000000000e+000 0.000000000000e+000 0.000000000000e+000 0.000000000000e+000 0.000000000000e+000 0.000000000000e+000 0.000000000000e+000 0.000000000000e+000 0.000000000000e+000 0.000000000000e+000 0.000000000000e+000 0.000000000000e+000 0.000000000000e+000 0.000000000000e+000 0.000000000000e+000 0.000000000000e+000 0.000000000000e+000 0.000000000000e+000 0.000000000000e+000 0.000000000000e+000 0.000000000000e+000 0.000000000000e+000 0.000000000000e+000 0.000000000000e+000 0.000000000000e+000 0.000000000000e+000 0.000000000000e+000 0.000000000000e+000 0.000000000000e+000 0.000000000000e+000 0.000000000000e+000 0.000000000000e+000 0.000000000000e+000 0.000000000000e+000 0.000000000000e+000 0.000000000000e+000 0.000000000000e+000 0.000000000000e+000 0.000000000000e+000 0.000000000000e+000 0.000000000000e+000 0.000000000000e+000 0.000000000000e+000 0.000000000000e+000 0.000000000000e+000 0.000000000000e+000 0.000000000000e+000 0.000000000000e+000 0.000000000000e+000 0.000000000000e+000 0.000000000000e+000 0.000000000000e+000 0.000000000000e+000 0.000000000000e+000 0.000000000000e+000 0.000000000000e+000 0.000000000000e+000 0.000000000000e+000 0.000000000000e+000 0.000000000000e+000 0.000000000000e+000 0.000000000000e+000 0.000000000000e+000 0.000000000000e+000 0.000000000000e+000 0.000000000000e+000 0.000000000000e+000 0.000000000000e+000 0.000000000000e+000 0.000000000000e+000 0.000000000000e+000 0.000000000000e+000 0.000000000000e+000 0.000000000000e+000 0.000000000000e+000 0.000000000000e+000 0.000000000000e+000 0.000000000000e+000 0.000000000000e+000 0.000000000000e+000 0.000000000000e+000 0.000000000000e+000 0.000000000000e+000 0.000000000000e+000 0.000000000000e+000 0.000000000000e+000 0.000000000000e+000 0.000000000000e+000 0.000000000000e+000 0.000000000000e+000 0.000000000000e+000 0.000000000000e+000 0.000000000000e+000 0.000000000000e+000 0.000000000000e+000 0.000000000000e+000 0.000000000000e+000 0.000000000000e+000 0.000000000000e+000 0.000000000000e+000 0.000000000000e+000 0.000000000000e+000 0.000000000000e+000 0.000000000000e+000 0.000000000000e+000 0.000000000000e+000 0.000000000000e+000 0.000000000000e+000 0.000000000000e+000 0.000000000000e+000 0.000000000000e+000 0.000000000000e+000 0.000000000000e+000 0.000000000000e+000 0.000000000000e+000 0.000000000000e+000 0.000000000000e+000 0.000000000000e+000 0.000000000000e+000 0.000000000000e+000 0.000000000000e+000 0.000000000000e+000 0.000000000000e+000 0.000000000000e+000 0.000000000000e+000 0.000000000000e+000 0.000000000000e+000 0.000000000000e+000 0.000000000000e+000 0.000000000000e+000 0.000000000000e+000 0.000000000000e+000 0.000000000000e+000 0.000000000000e+000 0.000000000000e+000 0.000000000000e+000 0.000000000000e+000 0.000000000000e+000 0.000000000000e+000 0.000000000000e+000 0.000000000000e+000 0.000000000000e+000 0.000000000000e+000 0.000000000000e+000 0.000000000000e+000 0.000000000000e+000 0.000000000000e+000 0.000000000000e+000 0.000000000000e+000 0.000000000000e+000 0.000000000000e+000 0.000000000000e+000 0.000000000000e+000 0.000000000000e+000 0.000000000000e+000 0.000000000000e+000 0.000000000000e+000 0.000000000000e+000 0.000000000000e+000 0.000000000000e+000 0.000000000000e+000 0.000000000000e+000 0.000000000000e+000 0.000000000000e+000 0.000000000000e+000 0.000000000000e+000 0.000000000000e+000 0.000000000000e+000 0.000000000000e+000 0.000000000000e+000 0.000000000000e+000 0.000000000000e+000 0.000000000000e+000 0.000000000000e+000 0.000000000000e+000 0.000000000000e+000 0.000000000000e+000 0.000000000000e+000 0.000000000000e+000 0.000000000000e+000 0.000000000000e+000 0.000000000000e+000 0.000000000000e+000 0.000000000000e+000 0.000000000000e+000 0.000000000000e+000 0.000000000000e+000 0.000000000000e+000 0.000000000000e+000 0.000000000000e+000 0.000000000000e+000 0.000000000000e+000 0.000000000000e+000 0.000000000000e+000 0.000000000000e+000 0.000000000000e+000 0.000000000000e+000 0.000000000000e+000 0.000000000000e+000 0.000000000000e+000 0.000000000000e+000 0.000000000000e+000 0.000000000000e+000 0.000000000000e+000 0.000000000000e+000 0.000000000000e+000 0.000000000000e+000 0.000000000000e+000 0.000000000000e+000 0.000000000000e+000 0.000000000000e+000 0.000000000000e+000 0.000000000000e+000 0.000000000000e+000 0.000000000000e+000 0.000000000000e+000 0.000000000000e+000 0.000000000000e+000 0.000000000000e+000 0.000000000000e+000 0.000000000000e+000 0.000000000000e+000 0.000000000000e+000 0.000000000000e+000 0.000000000000e+000 0.000000000000e+000 0.000000000000e+000 0.000000000000e+000 0.000000000000e+000 0.000000000000e+000 0.000000000000e+000 0.000000000000e+000 0.000000000000e+000 0.000000000000e+000 0.000000000000e+000 0.000000000000e+000 0.000000000000e+000 0.000000000000e+000 0.000000000000e+000 0.000000000000e+000 
        </DataArray>
      </PointData>
      <CellData>
        <DataArray type="Int32" Name="MatGroup" format="ascii">
          0 0 0 0 0 0 0 0 0 0 0 0 0 0 0 0 0 0 0 0 0 0 0 0 0 0 0 0 0 0 0 0 0 0 0 0 0 0 0 0 0 0 0 0 0 0 0 0 0 0 0 0 0 0 0 0 0 0 0 0 0 0 0 0 0 0 0 0 0 0 0 0 0 0 0 0 0 0 0 0 0 0 0 0 0 0 0 0 0 0 0 0 0 0 0 0 0 0 0 0 0 0 0 0 0 0 0 0 0 0 0 0 0 0 0 0 0 0 0 0 0 0 0 0 0 0 0 0 0 0 0 0 0 0 0 0 0 0 0 0 0 0 0 0 0 0 0 0 0 0 0 0 0 0 0 0 0 0 0 0 0 0 0 0 0 0 0 0 0 0 0 0 0 0 0 0 0 0 0 0 0 0 0 0 0 0 0 0 0 0 0 0 0 0 0 0 0 0 0 0 0 0 0 0 0 0 0 0 0 0 0 0 0 0 0 0 0 0 0 0 0 0 0 0 0 0 0 0 0 0 0 0 0 0 0 0 0 0 0 0 0 0 0 0 0 0 0 0 0 0 0 0 0 0 0 0 0 0 0 0 0 0 0 0 0 0 0 0 0 0 0 0 0 0 0 0 0 0 0 0 0 0 0 0 0 0 0 0 0 0 0 0 0 0 0 0 0 0 0 0 0 0 0 0 0 0 0 0 0 0 0 0 0 0 0 0 0 0 0 0 0 0 0 0 0 0 0 0 0 0 1 1 1 1 1 1 1 1 1 1 1 1 1 1 1 1 1 1 1 1 1 1 1 1 1 1 1 1 1 1 1 1 1 1 1 1 1 1 1 1 1 1 1 1 1 1 1 1 1 1 1 1 1 1 1 1 1 1 1 1 1 1 1 1 1 1 1 1 1 1 1 1 1 1 1 1 1 1 1 1 1 1 1 1 1 1 1 1 1 1 1 1 1 1 1 1 1 1 1 1 1 1 1 1 1 1 1 1 1 1 1 1 1 1 1 1 1 1 1 1 1 1 1 1 1 1 1 1 1 1 1 1 1 1 1 1 1 1 1 1 1 1 1 1 1 1 1 1 1 1 1 1 1 1 1 1 1 1 1 1 1 1 1 1 1 1 1 1 1 1 1 1 1 1 1 1 1 1 1 1 1 1 1 1 1 1 1 1 1 1 1 1 1 1 1 1 1 1 1 1 1 1 1 1 1 1 1 1 1 1 1 1 1 1 1 1 1 1 1 1 1 1 1 1 1 1 1 1 1 1 1 1 1 1 1 1 1 1 1 1 1 1 1 1 1 1 1 1 1 1 1 1 1 1 1 1 1 1 1 1 1 1 1 1 1 1 1 1 1 1 1 1 1 1 1 1 1 1 1 1 1 1 1 1 1 1 1 1 1 1 1 1 1 1 1 1 1 1 1 1 1 1 1 1 1 1 1 1 1 1 1 1 1 1 1 1 1 1 1 1 1 1 1 1 1 1 1 1 1 1 1 1 
        </DataArray>
      </CellData>
    </Piece>
  </UnstructuredGrid>
</VTKFile>
