<?xml version="1.0"?>
<VTKFile type="UnstructuredGrid" version="0.1" byte_order="LittleEndian">
  <UnstructuredGrid>
    <Piece NumberOfPoints="2604" NumberOfCells="4910">
      <Points>
        <DataArray type="Float64" NumberOfComponents="3" format="ascii">
          0.000000000000e+000 0.000000000000e+000 0.000000000000e+000
          2.000000000000e+002 0.000000000000e+000 0.000000000000e+000
          2.000000000000e+002 2.000000000000e+001 0.000000000000e+000
          0.000000000000e+000 2.000000000000e+001 0.000000000000e+000
          1.492537313427e+000 0.000000000000e+000 0.000000000000e+000
          2.985074626854e+000 0.000000000000e+000 0.000000000000e+000
          4.477611940281e+000 0.000000000000e+000 0.000000000000e+000
          5.970149253708e+000 0.000000000000e+000 0.000000000000e+000
          7.462686567135e+000 0.000000000000e+000 0.000000000000e+000
          8.955223880561e+000 0.000000000000e+000 0.000000000000e+000
          1.044776119399e+001 0.000000000000e+000 0.000000000000e+000
          1.194029850741e+001 0.000000000000e+000 0.000000000000e+000
          1.343283582084e+001 0.000000000000e+000 0.000000000000e+000
          1.492537313427e+001 0.000000000000e+000 0.000000000000e+000
          1.641791044770e+001 0.000000000000e+000 0.000000000000e+000
          1.791044776112e+001 0.000000000000e+000 0.000000000000e+000
          1.940298507455e+001 0.000000000000e+000 0.000000000000e+000
          2.089552238798e+001 0.000000000000e+000 0.000000000000e+000
          2.238805970141e+001 0.000000000000e+000 0.000000000000e+000
          2.388059701484e+001 0.000000000000e+000 0.000000000000e+000
          2.537313432826e+001 0.000000000000e+000 0.000000000000e+000
          2.686567164169e+001 0.000000000000e+000 0.000000000000e+000
          2.835820895511e+001 0.000000000000e+000 0.000000000000e+000
          2.985074626854e+001 0.000000000000e+000 0.000000000000e+000
          3.134328358196e+001 0.000000000000e+000 0.000000000000e+000
          3.283582089539e+001 0.000000000000e+000 0.000000000000e+000
          3.432835820881e+001 0.000000000000e+000 0.000000000000e+000
          3.582089552224e+001 0.000000000000e+000 0.000000000000e+000
          3.731343283566e+001 0.000000000000e+000 0.000000000000e+000
          3.880597014909e+001 0.000000000000e+000 0.000000000000e+000
          4.029850746251e+001 0.000000000000e+000 0.000000000000e+000
          4.179104477594e+001 0.000000000000e+000 0.000000000000e+000
          4.328358208936e+001 0.000000000000e+000 0.000000000000e+000
          4.477611940279e+001 0.000000000000e+000 0.000000000000e+000
          4.626865671621e+001 0.000000000000e+000 0.000000000000e+000
          4.776119402964e+001 0.000000000000e+000 0.000000000000e+000
          4.925373134306e+001 0.000000000000e+000 0.000000000000e+000
          5.074626865649e+001 0.000000000000e+000 0.000000000000e+000
          5.223880596991e+001 0.000000000000e+000 0.000000000000e+000
          5.373134328334e+001 0.000000000000e+000 0.000000000000e+000
          5.522388059676e+001 0.000000000000e+000 0.000000000000e+000
          5.671641791019e+001 0.000000000000e+000 0.000000000000e+000
          5.820895522361e+001 0.000000000000e+000 0.000000000000e+000
          5.970149253704e+001 0.000000000000e+000 0.000000000000e+000
          6.119402985046e+001 0.000000000000e+000 0.000000000000e+000
          6.268656716389e+001 0.000000000000e+000 0.000000000000e+000
          6.417910447732e+001 0.000000000000e+000 0.000000000000e+000
          6.567164179075e+001 0.000000000000e+000 0.000000000000e+000
          6.716417910418e+001 0.000000000000e+000 0.000000000000e+000
          6.865671641761e+001 0.000000000000e+000 0.000000000000e+000
          7.014925373104e+001 0.000000000000e+000 0.000000000000e+000
          7.164179104447e+001 0.000000000000e+000 0.000000000000e+000
          7.313432835790e+001 0.000000000000e+000 0.000000000000e+000
          7.462686567133e+001 0.000000000000e+000 0.000000000000e+000
          7.611940298476e+001 0.000000000000e+000 0.000000000000e+000
          7.761194029819e+001 0.000000000000e+000 0.000000000000e+000
          7.910447761162e+001 0.000000000000e+000 0.000000000000e+000
          8.059701492505e+001 0.000000000000e+000 0.000000000000e+000
          8.208955223848e+001 0.000000000000e+000 0.000000000000e+000
          8.358208955191e+001 0.000000000000e+000 0.000000000000e+000
          8.507462686534e+001 0.000000000000e+000 0.000000000000e+000
          8.656716417877e+001 0.000000000000e+000 0.000000000000e+000
          8.805970149220e+001 0.000000000000e+000 0.000000000000e+000
          8.955223880563e+001 0.000000000000e+000 0.000000000000e+000
          9.104477611907e+001 0.000000000000e+000 0.000000000000e+000
          9.253731343250e+001 0.000000000000e+000 0.000000000000e+000
          9.402985074593e+001 0.000000000000e+000 0.000000000000e+000
          9.552238805936e+001 0.000000000000e+000 0.000000000000e+000
          9.701492537279e+001 0.000000000000e+000 0.000000000000e+000
          9.850746268622e+001 0.000000000000e+000 0.000000000000e+000
          9.999999999965e+001 0.000000000000e+000 0.000000000000e+000
          1.014925373131e+002 0.000000000000e+000 0.000000000000e+000
          1.029850746265e+002 0.000000000000e+000 0.000000000000e+000
          1.044776119399e+002 0.000000000000e+000 0.000000000000e+000
          1.059701492534e+002 0.000000000000e+000 0.000000000000e+000
          1.074626865668e+002 0.000000000000e+000 0.000000000000e+000
          1.089552238802e+002 0.000000000000e+000 0.000000000000e+000
          1.104477611937e+002 0.000000000000e+000 0.000000000000e+000
          1.119402985071e+002 0.000000000000e+000 0.000000000000e+000
          1.134328358205e+002 0.000000000000e+000 0.000000000000e+000
          1.149253731340e+002 0.000000000000e+000 0.000000000000e+000
          1.164179104474e+002 0.000000000000e+000 0.000000000000e+000
          1.179104477608e+002 0.000000000000e+000 0.000000000000e+000
          1.194029850742e+002 0.000000000000e+000 0.000000000000e+000
          1.208955223877e+002 0.000000000000e+000 0.000000000000e+000
          1.223880597011e+002 0.000000000000e+000 0.000000000000e+000
          1.238805970145e+002 0.000000000000e+000 0.000000000000e+000
          1.253731343280e+002 0.000000000000e+000 0.000000000000e+000
          1.268656716414e+002 0.000000000000e+000 0.000000000000e+000
          1.283582089548e+002 0.000000000000e+000 0.000000000000e+000
          1.298507462683e+002 0.000000000000e+000 0.000000000000e+000
          1.313432835817e+002 0.000000000000e+000 0.000000000000e+000
          1.328358208952e+002 0.000000000000e+000 0.000000000000e+000
          1.343283582086e+002 0.000000000000e+000 0.000000000000e+000
          1.358208955220e+002 0.000000000000e+000 0.000000000000e+000
          1.373134328355e+002 0.000000000000e+000 0.000000000000e+000
          1.388059701489e+002 0.000000000000e+000 0.000000000000e+000
          1.402985074624e+002 0.000000000000e+000 0.000000000000e+000
          1.417910447758e+002 0.000000000000e+000 0.000000000000e+000
          1.432835820892e+002 0.000000000000e+000 0.000000000000e+000
          1.447761194027e+002 0.000000000000e+000 0.000000000000e+000
          1.462686567161e+002 0.000000000000e+000 0.000000000000e+000
          1.477611940296e+002 0.000000000000e+000 0.000000000000e+000
          1.492537313430e+002 0.000000000000e+000 0.000000000000e+000
          1.507462686564e+002 0.000000000000e+000 0.000000000000e+000
          1.522388059699e+002 0.000000000000e+000 0.000000000000e+000
          1.537313432833e+002 0.000000000000e+000 0.000000000000e+000
          1.552238805968e+002 0.000000000000e+000 0.000000000000e+000
          1.567164179102e+002 0.000000000000e+000 0.000000000000e+000
          1.582089552237e+002 0.000000000000e+000 0.000000000000e+000
          1.597014925371e+002 0.000000000000e+000 0.000000000000e+000
          1.611940298505e+002 0.000000000000e+000 0.000000000000e+000
          1.626865671640e+002 0.000000000000e+000 0.000000000000e+000
          1.641791044774e+002 0.000000000000e+000 0.000000000000e+000
          1.656716417909e+002 0.000000000000e+000 0.000000000000e+000
          1.671641791043e+002 0.000000000000e+000 0.000000000000e+000
          1.686567164177e+002 0.000000000000e+000 0.000000000000e+000
          1.701492537312e+002 0.000000000000e+000 0.000000000000e+000
          1.716417910446e+002 0.000000000000e+000 0.000000000000e+000
          1.731343283581e+002 0.000000000000e+000 0.000000000000e+000
          1.746268656715e+002 0.000000000000e+000 0.000000000000e+000
          1.761194029849e+002 0.000000000000e+000 0.000000000000e+000
          1.776119402984e+002 0.000000000000e+000 0.000000000000e+000
          1.791044776118e+002 0.000000000000e+000 0.000000000000e+000
          1.805970149253e+002 0.000000000000e+000 0.000000000000e+000
          1.820895522387e+002 0.000000000000e+000 0.000000000000e+000
          1.835820895521e+002 0.000000000000e+000 0.000000000000e+000
          1.850746268656e+002 0.000000000000e+000 0.000000000000e+000
          1.865671641790e+002 0.000000000000e+000 0.000000000000e+000
          1.880597014925e+002 0.000000000000e+000 0.000000000000e+000
          1.895522388059e+002 0.000000000000e+000 0.000000000000e+000
          1.910447761194e+002 0.000000000000e+000 0.000000000000e+000
          1.925373134328e+002 0.000000000000e+000 0.000000000000e+000
          1.940298507462e+002 0.000000000000e+000 0.000000000000e+000
          1.955223880597e+002 0.000000000000e+000 0.000000000000e+000
          1.970149253731e+002 0.000000000000e+000 0.000000000000e+000
          1.985074626866e+002 0.000000000000e+000 0.000000000000e+000
          2.000000000000e+002 1.428571428570e+000 0.000000000000e+000
          2.000000000000e+002 2.857142857140e+000 0.000000000000e+000
[...]
      <PointData Scalars="Capillary_Pressure">
        <DataArray type="Float64" Name="Capillary_Pressure" format="ascii">
          3.839283624834e+005 0.000000000000e+000 0.000000000000e+000 3.839309595274e+005 3.841596085546e+005 3.814068472353e+005 3.805445451001e+005 3.786034541202e+005 3.783303391844e+005 3.764265754066e+005 3.743921946894e+005 3.743168994515e+005 3.721408159156e+005 3.719747387729e+005 3.701087806723e+005 3.677284229764e+005 3.677646448855e+005 3.657445339732e+005 3.653409479696e+005 3.632320575467e+005 3.598256706899e+005 3.596310163692e+005 3.590700950361e+005 3.560572896264e+005 3.557315396771e+005 3.535438314270e+005 3.529282749793e+005 3.497804890354e+005 3.492914249827e+005 3.472260742385e+005 3.466020026484e+005 3.433971417627e+005 3.428824272113e+005 3.409074722170e+005 3.401862890335e+005 3.365767007349e+005 3.365154300093e+005 3.339080426100e+005 3.315148275535e+005 3.312500360505e+005 3.304740002203e+005 3.273062843612e+005 3.246522258238e+005 3.242876755307e+005 3.206383750273e+005 3.201808065867e+005 3.173480043944e+005 3.168872280805e+005 3.144552184596e+005 3.135637944994e+005 3.094770126147e+005 3.093079952894e+005 3.054548318866e+005 3.049196425570e+005 3.009536853757e+005 2.996168637124e+005 2.974384417082e+005 2.969989381499e+005 2.958901905826e+005 2.921045423074e+005 2.888843720225e+005 2.885438348289e+005 2.845071705520e+005 2.838123821621e+005 2.809104825899e+005 2.775442515593e+005 2.745419839393e+005 2.739517362495e+005 2.693977591708e+005 2.678233301700e+005 2.652184882273e+005 2.620803825387e+005 2.612571026767e+005 2.583925383076e+005 2.546671678360e+005 2.513437564112e+005 2.508308619723e+005 2.473000027367e+005 2.440684580851e+005 2.427880013206e+005 2.370795918890e+005 2.337012190208e+005 2.305916473283e+005 2.269899332345e+005 2.234727837094e+005 2.197528038746e+005 2.190539796839e+005 2.155569250529e+005 2.116881003324e+005 2.081548667832e+005 2.009244369335e+005 1.970672738195e+005 1.931631736063e+005 1.887990688644e+005 1.861791524152e+005 1.785900101882e+005 1.740738731066e+005 1.716104844923e+005 1.634352294630e+005 1.571973340522e+005 1.541389606294e+005 1.439600307654e+005 1.374024362860e+005 1.302928488266e+005 1.214712889494e+005 1.121890422188e+005 1.020314115318e+005 8.968606678604e+004 7.602266058898e+004 5.887499521550e+004 3.640019941223e+004 4.177669332690e+003 0.000000000000e+000 0.000000000000e+000 0.000000000000e+000 0.000000000000e+000 0.000000000000e+000 0.000000000000e+000 0.000000000000e+000 0.000000000000e+000 0.000000000000e+000 0.000000000000e+000 0.000000000000e+000 0.000000000000e+000 0.000000000000e+000 0.000000000000e+000 0.000000000000e+000 0.000000000000e+000 0.000000000000e+000 0.000000000000e+000 0.000000000000e+000 0.000000000000e+000 0.000000000000e+000 0.000000000000e+000 0.000000000000e+000 0.000000000000e+000 0.000000000000e+000 0.000000000000e+000 0.000000000000e+000 0.000000000000e+000 0.000000000000e+000 0.000000000000e+000 0.000000000000e+000 0.000000000000e+000 0.000000000000e+000 0.000000000000e+000 0.000000000000e+000 0.000000000000e+000 0.000000000000e+000 0.000000000000e+000 0.000000000000e+000 0.000000000000e+000 0.000000000000e+000 0.000000000000e+000 0.000000000000e+000 0.000000000000e+000 0.000000000000e+000 0.000000000000e+000 0.000000000000e+000 0.000000000000e+000 0.000000000000e+000 0.000000000000e+000 0.000000000000e+000 0.000000000000e+000 0.000000000000e+000 0.000000000000e+000 0.000000000000e+000 0.000000000000e+000 0.000000000000e+000 0.000000000000e+000 0.000000000000e+000 0.000000000000e+000 0.000000000000e+000 0.000000000000e+000 0.000000000000e+000 4.178238382832e+003 3.638890767833e+004 5.884404012890e+004 7.601494626960e+004 8.966968175522e+004 1.020348687711e+005 1.122108967087e+005 1.214595802075e+005 1.302902977975e+005 1.373954526095e+005 1.439512420413e+005 1.541365244698e+005 1.571891545029e+005 1.634160117726e+005 1.716040683654e+005 1.740695818007e+005 1.786001714769e+005 1.861664535720e+005 1.887960456956e+005 1.931517346267e+005 1.970500146711e+005 2.009155238833e+005 2.081462968731e+005 2.116949662393e+005 2.155636821309e+005 2.190507510046e+005 2.197567257788e+005 2.234786502476e+005 2.270044509659e+005 2.305829650433e+005 2.337095792459e+005 2.370521583600e+005 2.427813144274e+005 2.440539473244e+005 2.473087161498e+005 2.508152841415e+005 2.513332662507e+005 2.546553190893e+005 2.583789811962e+005 2.612721734386e+005 2.645959240371e+005 2.652206847996e+005 2.678080202624e+005 2.693715089895e+005 2.739647420983e+005 2.771312290797e+005 2.775350762185e+005 2.808418218589e+005 2.838217025692e+005 2.845146109553e+005 2.885380680635e+005 2.888928921984e+005 2.921358847948e+005 2.958881607510e+005 2.970014150809e+005 2.974569691927e+005 2.996330444498e+005 3.039805552893e+005 3.049392963557e+005 3.054540410320e+005 3.093192698298e+005 3.095214473235e+005 3.135464326877e+005 3.144236116876e+005 3.168782241819e+005 3.173346964223e+005 3.201585415415e+005 3.234262077226e+005 3.242886029953e+005 3.246342798673e+005 3.273055856210e+005 3.304727430106e+005 3.312541560947e+005 3.315055669363e+005 3.339080749322e+005 3.365170519001e+005 3.365736952496e+005 3.401847903485e+005 3.409034409126e+005 3.428802891194e+005 3.434001532372e+005 3.465995427193e+005 3.472250258732e+005 3.492906728612e+005 3.497739791694e+005 3.529305384187e+005 3.535379826584e+005 3.557307733276e+005 3.560618073691e+005 3.590710221670e+005 3.596318428095e+005 3.598328008382e+005 3.632216907320e+005 3.653373419899e+005 3.657439413768e+005 3.677737647319e+005 3.677166623956e+005 3.700686605558e+005 3.701272539680e+005 3.721558806554e+005 3.743168009270e+005 3.743811704806e+005 3.764350797667e+005 3.783361615742e+005 3.786164314932e+005 3.805041182043e+005 3.814102785999e+005 3.841590491174e+005 3.839314358519e+005 3.839290808146e+005 3.839319399861e+005 3.839311717677e+005 3.839273772931e+005 3.839295433175e+005 3.839304448411e+005 3.839275851132e+005 3.839285087471e+005 3.839318523920e+005 3.839294827795e+005 3.839284635684e+005 3.839286381938e+005 0.000000000000e+000 3.764108196666e+005 0.000000000000e+000 0.000000000000e+000 4.977855403141e+004 1.342353590051e+005 1.786407656190e+005 3.594266229568e+005 2.077593559750e+005 3.472562873173e+005 3.367743124898e+005 3.245522804279e+005 3.045860713396e+005 2.891510564034e+005 2.734404124511e+005 2.543009807514e+005 2.340658542479e+005 3.679580194824e+005 3.144428968679e+005 2.197378052040e+005 2.227780001050e+005 2.440460810595e+005 2.646156670557e+005 2.808218864946e+005 2.970063491006e+005 0.000000000000e+000 0.000000000000e+000 1.008117074585e+005 2.970004742777e+005 2.810246126560e+005 2.644518953508e+005 2.436774496966e+005 1.570065400148e+005 1.931339488400e+005 3.535526415897e+005 3.429508526896e+005 3.311848653479e+005 1.930912891956e+005 1.571722726693e+005 1.020129060523e+005 0.000000000000e+000 0.000000000000e+000 3.312760592289e+005 3.428845766479e+005 3.535305327894e+005 0.000000000000e+000 0.000000000000e+000 3.174482422969e+005 3.098493523494e+005 3.719684464613e+005 3.632232117619e+005 0.000000000000e+000 3.786105406630e+005 0.000000000000e+000 3.786201451830e+005 3.717324700929e+005 3.632663925489e+005 3.203063953465e+005 3.090785781244e+005 0.000000000000e+000 2.340629845068e+005 0.000000000000e+000 2.542970853234e+005 2.734312306292e+005 2.891344486511e+005 3.042152151040e+005 2.078077045223e+005 4.808091865906e+004 1.333398991297e+005 1.786044915133e+005 3.472898344760e+005 3.368382237095e+005 2.087466196757e+005 1.787572905509e+005 1.341580264698e+005 4.865785758106e+004 2.891512822345e+005 2.734226445447e+005 2.543210750907e+005 0.000000000000e+000 2.340398531904e+005 0.000000000000e+000 3.246171342542e+005 3.367913199987e+005 3.472836687301e+005 3.594300099913e+005 0.000000000000e+000 0.000000000000e+000 3.743810550560e+005 3.590621100514e+005 3.007821844487e+005 3.268125530496e+005 0.000000000000e+000 3.805604978841e+005 3.679438966742e+005 3.763744895520e+005 3.679618036823e+005 3.144685420041e+005 3.199492240149e+005 3.095574327309e+005 3.721502512366e+005 3.631976234534e+005 3.144165054516e+005 0.000000000000e+000 9.167711582900e+004 0.000000000000e+000 1.542499320919e+005 0.000000000000e+000 1.892301371497e+005 2.429652885472e+005 2.777392370420e+005 2.930312955115e+005 2.613943385034e+005 3.529451922825e+005 3.314550756313e+005 3.429057882590e+005 2.233595220191e+005 3.144553776903e+005 0.000000000000e+000 3.813969375731e+005 0.000000000000e+000 3.813936572152e+005 2.384426823008e+005 2.584678783924e+005 2.777406018545e+005 2.925468330249e+005 2.009625392680e+005 2.268504338175e+005 2.156128216635e+005 1.681226773760e+005 3.275003856088e+005 1.157815474699e+005 3.406982511161e+005 0.000000000000e+000 3.500615717052e+005 0.000000000000e+000 0.000000000000e+000 0.000000000000e+000 0.000000000000e+000 0.000000000000e+000 1.165966980425e+005 8.546768683803e+004 1.682598192319e+005 1.508185961884e+005 3.500009888559e+005 1.896650710933e+005 2.009797900786e+005 3.406536007984e+005 3.435742613265e+005 2.925206365619e+005 2.777249712775e+005 2.584166777277e+005 2.841367651287e+005 2.655605880901e+005 2.424038801959e+005 2.469375791508e+005 3.315592174415e+005 2.155968074862e+005 2.266046070099e+005 0.000000000000e+000 3.558985528175e+005 0.000000000000e+000 3.435047066823e+005 8.751590538210e+004 3.316432511449e+005 1.502101440244e+005 2.998458005350e+005 2.842736986398e+005 2.657002927042e+005 2.501263411232e+005 1.898308184762e+005 3.679390890782e+005 0.000000000000e+000 0.000000000000e+000 3.089248821918e+005 3.228776752533e+005 3.630422573222e+005 2.157111263459e+005 2.655568223390e+005 2.468665188035e+005 2.840828211646e+005 2.998280105029e+005 3.558703177367e+005 3.407436480809e+005 0.000000000000e+000 3.275213962233e+005 0.000000000000e+000 1.172550860128e+005 2.008549934568e+005 1.643110938463e+005 3.557364099075e+005 0.000000000000e+000 0.000000000000e+000 3.130687898367e+005 3.721432571253e+005 0.000000000000e+000 2.154275688706e+005 2.043521438061e+005 1.717188674911e+005 3.271281194049e+005 1.222398853107e+005 3.401388076588e+005 2.845689447623e+005 2.678501431215e+005 2.509019394234e+005 0.000000000000e+000 3.560574471880e+005 0.000000000000e+000 3.655214670624e+005 3.000651562265e+005 0.000000000000e+000 0.000000000000e+000 0.000000000000e+000 2.973364262274e+005 3.305506859567e+005 3.053863639220e+005 3.235542611735e+005 3.783463267016e+005 3.597872669380e+005 3.742816337614e+005 3.700159084916e+005 3.597844911232e+005 2.370725533536e+005 2.583919589685e+005 2.771594676597e+005 2.921458031611e+005 2.256116350485e+003 3.497833194874e+005 0.000000000000e+000 2.270574433912e+005 1.861995694604e+005 5.656173305612e+003 1.438458353249e+005 0.000000000000e+000 7.596429790990e+004 2.376368175465e+005 2.584175123220e+005 2.771078373934e+005 2.920976378163e+005 3.497137024997e+005 3.338765500799e+005 3.466144052528e+005 3.466114378617e+005 7.513292931915e+004 3.334513564817e+005 1.438628067791e+005 1.861063542522e+005 2.270296156203e+005 0.000000000000e+000 0.000000000000e+000 3.813952926569e+005 3.814032927927e+005 0.000000000000e+000 3.779023746105e+005 0.000000000000e+000 0.000000000000e+000 3.764728056053e+005 0.000000000000e+000 3.742957581998e+005 3.779119787289e+005 3.237471008203e+005 3.047970577221e+005 3.592288513380e+005 3.742037163068e+005 3.243435285712e+005 3.656311809965e+005 3.657756482119e+005 3.048345331631e+005 3.699053478901e+005 3.198842739486e+005 3.131979544291e+005 3.700626797914e+005 3.404633024559e+005 2.005157309229e+005 1.675195205265e+005 1.194161383601e+005 0.000000000000e+000 0.000000000000e+000 2.158493706658e+005 3.000906627288e+005 2.839425393441e+005 2.683382372592e+005 2.505553728325e+005 3.172761809731e+005 3.657094734895e+005 3.100857480833e+005 3.168381114839e+005 0.000000000000e+000 0.000000000000e+000 3.556121355284e+005 3.299545164310e+005 3.765020758731e+005 3.785681657177e+005 0.000000000000e+000 3.699606779286e+005 2.341555916868e+005 2.572801864238e+005 2.740064999897e+005 2.889170281267e+005 2.081793155382e+005 2.085506541935e+005 2.304958917378e+005 1.740104965446e+005 1.316548762865e+005 3.246647153303e+005 3.480243136712e+004 3.369382844943e+005 0.000000000000e+000 3.493133781765e+005 0.000000000000e+000 0.000000000000e+000 3.441971164887e+004 1.315915777758e+005 1.751583323450e+005 3.493301358861e+005 3.369458279362e+005 2.888938767565e+005 2.740219745865e+005 2.572973023974e+005 0.000000000000e+000 3.590534621295e+005 3.008799196651e+005 0.000000000000e+000 0.000000000000e+000 0.000000000000e+000 3.562518047706e+005 3.598925446368e+005 3.742824361507e+005 3.134856778715e+005 0.000000000000e+000 0.000000000000e+000 1.071256306499e+005 1.606326742511e+005 1.973402526541e+005 3.536104982871e+005 3.408294333992e+005 3.308222174708e+005 2.440740184174e+005 2.810276490938e+005 2.974144658310e+005 2.652025436661e+005 2.194302075445e+005 0.000000000000e+000 0.000000000000e+000 0.000000000000e+000 0.000000000000e+000 1.346782704679e+005 1.784950820822e+005 3.368681754160e+005 2.889920497080e+005 2.731317899937e+005 2.541038125906e+005 3.807822285599e+005 3.169476062695e+005 2.084937201254e+005 2.081578216316e+005 3.042302786846e+005 0.000000000000e+000 3.840034463887e+005 3.271351679151e+005 2.998051659830e+005 1.931812073313e+005 1.572508235119e+005 1.020666032571e+005 0.000000000000e+000 0.000000000000e+000 3.312308955675e+005 3.428636583186e+005 3.535416928567e+005 2.645935348416e+005 2.440607656783e+005 2.970024373672e+005 2.809048519214e+005 0.000000000000e+000 0.000000000000e+000 2.808887930595e+005 2.645759365363e+005 1.020182217717e+005 2.440644947595e+005 1.572019764943e+005 1.931080222163e+005 3.428853301031e+005 2.197073057066e+005 2.197665994665e+005 3.655009230877e+005 3.207523396283e+005 3.677257092906e+005 2.977853848839e+005 3.142582315183e+005 0.000000000000e+000 0.000000000000e+000 3.093152697254e+005 3.058356161430e+005 3.138962174167e+005 2.039393079963e+005 2.346466322667e+005 2.306352219709e+005 2.112527168921e+005 2.506200417961e+005 2.689732565435e+005 2.881390373762e+005 1.813898487008e+005 3.470276134237e+005 3.361874203438e+005 0.000000000000e+000 6.687829518334e+004 1.405457241963e+005 0.000000000000e+000 3.470244591832e+005 6.694091475009e+004 3.361824986608e+005 2.881333471790e+005 2.689497130378e+005 2.510043451372e+005 1.405523411496e+005 1.814003363127e+005 3.808756511919e+005 3.741564110608e+005 0.000000000000e+000 3.808691723033e+005 2.340292486709e+005 2.341097316427e+005 3.472934792631e+005 3.473016877004e+005 4.759759724986e+004 4.809029979929e+004 0.000000000000e+000 3.698595557874e+005 3.764074654357e+005 3.590386938490e+005 3.679751140123e+005 0.000000000000e+000 3.840044357492e+005 0.000000000000e+000 3.840031240755e+005 3.719879682289e+005 0.000000000000e+000 0.000000000000e+000 1.787885230992e+005 1.341806685309e+005 3.367928124992e+005 2.541868958700e+005 2.891859713602e+005 2.734791146691e+005 0.000000000000e+000 3.633276431318e+005 3.632842803918e+005 3.742952350091e+005 3.051963629567e+005 3.239028844452e+005 3.743184759008e+005 3.596360050112e+005 3.534415840797e+005 3.200234316218e+005 3.627797585898e+005 0.000000000000e+000 0.000000000000e+000 3.229406100981e+005 3.055923550592e+005 0.000000000000e+000 3.247811093697e+005 3.054498436417e+005 3.094007607191e+005 0.000000000000e+000 3.558952281553e+005 0.000000000000e+000 2.845605671410e+005 2.678571557102e+005 2.508949751856e+005 2.122196277286e+005 3.406770019519e+005 1.158490154829e+005 3.298733418252e+005 1.681808670047e+005 2.044431816379e+005 0.000000000000e+000 3.657684667297e+005 3.101714281286e+005 3.167202937921e+005 3.246317237096e+005 3.700883967478e+005 0.000000000000e+000 3.840037121207e+005 0.000000000000e+000 3.841462501926e+005 3.765404162625e+005 3.594103026580e+005 3.145351772689e+005 3.200128478796e+005 0.000000000000e+000 3.314678648948e+005 2.966196428657e+005 3.632968724168e+005 3.051292218125e+005 3.678580341925e+005 1.897402001254e+005 1.496850354593e+005 8.640645816382e+004 3.316848865085e+005 3.435795149671e+005 7.418299977377e+004 0.000000000000e+000 1.437517138353e+005 7.857727921756e+003 1.859904769973e+005 3.466506241229e+005 3.334801830318e+005 3.492155669655e+005 2.920566908353e+005 2.583186807191e+005 2.744522042156e+005 2.378388741632e+005 0.000000000000e+000 0.000000000000e+000 3.500205673692e+005 2.266981259490e+005 2.926219296530e+005 2.778230335102e+005 2.585364066318e+005 2.424279555735e+005 2.271116392175e+005 2.197402574288e+005 2.440539186261e+005 2.809143433023e+005 2.646283848362e+005 2.970053600387e+005 0.000000000000e+000 0.000000000000e+000 1.019776228851e+005 1.931249185752e+005 1.571629383829e+005 3.535341134303e+005 3.428821655339e+005 3.312528706651e+005 3.239508664232e+005 3.597797203126e+005 0.000000000000e+000 3.765347407964e+005 2.272639008004e+005 2.377074270588e+005 2.582172875846e+005 2.768834123674e+005 2.919481916296e+005 1.333204262060e+004 0.000000000000e+000 3.491199042011e+005 7.246488756842e+004 1.436191096944e+005 1.858412928677e+005 3.468396280523e+005 3.335334445949e+005 3.140796289001e+005 0.000000000000e+000 3.170007929768e+005 0.000000000000e+000 2.229085805120e+005 2.196466040007e+005 2.438590703461e+005 2.642686175220e+005 2.806603746465e+005 2.966998301675e+005 0.000000000000e+000 0.000000000000e+000 1.033832099857e+005 1.610248484363e+005 1.926946729014e+005 3.427808066504e+005 1.932542257610e+005 2.807868827094e+005 2.622042668517e+005 2.439041488784e+005 1.573001771013e+005 1.021098678643e+005 3.311951485625e+005 0.000000000000e+000 3.428422765292e+005 0.000000000000e+000 3.535390820091e+005 3.679557170494e+005 0.000000000000e+000 3.531524644108e+005 0.000000000000e+000 2.777721694242e+005 2.430244192632e+005 2.612500128712e+005 2.930510335327e+005 3.428059587641e+005 9.279182852082e+004 3.311514926786e+005 1.530188540141e+005 1.894354773383e+005 2.231428414249e+005 3.764451445118e+005 0.000000000000e+000 3.840061103422e+005 0.000000000000e+000 0.000000000000e+000 0.000000000000e+000 3.171593290183e+005 3.103238670131e+005 3.634393340058e+005 3.534779704480e+005 0.000000000000e+000 3.760510112582e+005 0.000000000000e+000 0.000000000000e+000 3.595564995048e+005 2.045073534483e+005 1.718489755440e+005 3.272309541006e+005 1.257894377691e+005 3.400864190447e+005 2.508021503642e+005 2.678592630240e+005 2.844994364184e+005 2.122225273786e+005 0.000000000000e+000 3.561420196428e+005 0.000000000000e+000 3.246454531641e+005 3.042971616605e+005 3.173732846126e+005 3.721118810618e+005 3.742818767294e+005 0.000000000000e+000 3.805878062223e+005 0.000000000000e+000 3.805893725236e+005 2.965749694820e+005 3.314520158493e+005 2.998093878106e+005 3.699983257236e+005 0.000000000000e+000 3.807875712111e+005 3.203657057393e+005 3.097809864335e+005 3.174752854420e+005 3.634622139154e+005 3.720114430719e+005 3.677958527123e+005 3.276240052707e+005 3.720171737639e+005 3.658067929773e+005 3.173063350506e+005 3.743933121430e+005 3.721991450987e+005 3.140093004258e+005 3.233455370330e+005 3.096060733192e+005 3.200916159592e+005 0.000000000000e+000 3.783419314729e+005 3.560118582527e+005 2.193724370230e+005 2.113226484391e+005 0.000000000000e+000 0.000000000000e+000 0.000000000000e+000 0.000000000000e+000 1.223329398766e+005 1.717954915655e+005 3.401003439518e+005 1.967382612864e+005 2.038860620425e+005 2.974103657564e+005 2.999349358977e+005 2.837299761631e+005 2.880802418254e+005 2.688767768078e+005 2.647497961722e+005 2.473057658115e+005 2.513358097942e+005 3.786039305616e+005 0.000000000000e+000 0.000000000000e+000 0.000000000000e+000 0.000000000000e+000 3.809020623071e+005 0.000000000000e+000 2.382624711828e+005 2.583544991139e+005 2.776392691334e+005 2.918446149488e+005 2.268616200765e+005 2.151557042335e+005 2.011061035456e+005 1.683375486397e+005 3.274002504991e+005 1.166546869568e+005 3.406162503193e+005 0.000000000000e+000 3.499886776031e+005 0.000000000000e+000 0.000000000000e+000 0.000000000000e+000 0.000000000000e+000 1.166768419353e+005 1.68335