<?xml version="1.0"?>
<VTKFile type="UnstructuredGrid" version="0.1" byte_order="LittleEndian">
  <UnstructuredGrid>
    <Piece NumberOfPoints="206" NumberOfCells="326">
      <Points>
        <DataArray type="Float64" NumberOfComponents="3" format="ascii">
          1.897435897436e+002 0.000000000000e+000 0.000000000000e+000
          1.931791020913e+002 4.394475469951e+000 0.000000000000e+000
          1.948717948718e+002 0.000000000000e+000 0.000000000000e+000
          5.880459463038e+000 1.099154902703e+001 0.000000000000e+000
          0.000000000000e+000 6.666666666655e+000 0.000000000000e+000
          0.000000000000e+000 1.333333333332e+001 0.000000000000e+000
          2.022497621136e+001 4.353446977749e+000 0.000000000000e+000
          2.051282051291e+001 0.000000000000e+000 0.000000000000e+000
          1.538461538468e+001 0.000000000000e+000 0.000000000000e+000
          1.711973192023e+001 9.822643375701e+000 0.000000000000e+000
          2.235754985755e+001 9.965277777778e+000 0.000000000000e+000
          1.342973104686e+001 5.024912353671e+000 0.000000000000e+000
          2.051282051273e+001 2.000000000000e+001 0.000000000000e+000
          1.990430525733e+001 1.515950912857e+001 0.000000000000e+000
          1.538461538455e+001 2.000000000000e+001 0.000000000000e+000
          1.275415082211e+002 1.500000000000e+001 0.000000000000e+000
          1.305226984145e+002 1.000000000000e+001 0.000000000000e+000
          1.266144349478e+002 1.000000000000e+001 0.000000000000e+000
          1.320283396971e+002 1.500000000000e+001 0.000000000000e+000
          1.275415082214e+002 5.000000000000e+000 0.000000000000e+000
          1.320283396974e+002 5.000000000000e+000 0.000000000000e+000
          2.662324775127e+001 5.694754464286e+000 0.000000000000e+000
          2.617521367521e+001 1.000000000000e+001 0.000000000000e+000
          2.532894973587e+001 1.397776144540e+001 0.000000000000e+000
          1.184289081109e+002 1.400000000000e+001 0.000000000000e+000
          1.217390520306e+002 1.000000000000e+001 0.000000000000e+000
          1.150696490874e+002 1.000602607727e+001 0.000000000000e+000
          1.222794923522e+002 1.500000000000e+001 0.000000000000e+000
          1.184289081111e+002 6.000000000000e+000 0.000000000000e+000
          1.222794923525e+002 5.000000000000e+000 0.000000000000e+000
          1.647570346228e+002 1.499982920203e+001 0.000000000000e+000
          1.610766879766e+002 9.999898274740e+000 0.000000000000e+000
          1.584898332400e+002 1.571424274568e+001 0.000000000000e+000
          7.586604251621e+001 5.621173932933e+000 0.000000000000e+000
          8.021655268624e+001 1.019499276048e+001 0.000000000000e+000
          8.189146271784e+001 4.117034117006e+000 0.000000000000e+000
          7.588302713352e+001 1.447660101075e+001 0.000000000000e+000
          8.201035504047e+001 1.604351572524e+001 0.000000000000e+000
          1.647575611852e+002 4.999583052019e+000 0.000000000000e+000
          1.589293847822e+002 4.146609780286e+000 0.000000000000e+000
          1.641025641024e+002 2.000000000000e+001 0.000000000000e+000
          1.692307692306e+002 2.000000000000e+001 0.000000000000e+000
          1.660230030600e+002 1.000000000000e+001 0.000000000000e+000
          1.697917692894e+002 1.499909577546e+001 0.000000000000e+000
          1.641025641028e+002 0.000000000000e+000 0.000000000000e+000
          1.692307692309e+002 0.000000000000e+000 0.000000000000e+000
          1.697948641857e+002 4.997649016204e+000 0.000000000000e+000
          1.743589743588e+002 2.000000000000e+001 0.000000000000e+000
          1.710911944708e+002 1.000000000000e+001 0.000000000000e+000
          1.749412615107e+002 1.499457465278e+001 0.000000000000e+000
          1.743589743591e+002 0.000000000000e+000 0.000000000000e+000
          1.749598308881e+002 4.985894097222e+000 0.000000000000e+000
          1.794871794871e+002 2.000000000000e+001 0.000000000000e+000
          1.769615825547e+002 9.964192708333e+000 0.000000000000e+000
          1.806150388551e+002 1.469347696151e+001 0.000000000000e+000
          1.794871794873e+002 0.000000000000e+000 0.000000000000e+000
          1.803838168879e+002 4.953657234265e+000 0.000000000000e+000
          1.846153846153e+002 2.000000000000e+001 0.000000000000e+000
          1.846153846155e+002 0.000000000000e+000 0.000000000000e+000
          1.858160403609e+002 4.891281862002e+000 0.000000000000e+000
          1.487179487182e+002 0.000000000000e+000 0.000000000000e+000
          1.505413635482e+002 5.088785165962e+000 0.000000000000e+000
          1.538461538464e+002 0.000000000000e+000 0.000000000000e+000
          5.128205128183e+001 2.000000000000e+001 0.000000000000e+000
          4.937524205543e+001 1.478507223003e+001 0.000000000000e+000
          4.615384615364e+001 2.000000000000e+001 0.000000000000e+000
          4.335527308620e+001 1.560308717176e+001 0.000000000000e+000
          4.102564102546e+001 2.000000000000e+001 0.000000000000e+000
          4.429011235569e+001 1.011123788964e+001 0.000000000000e+000
          3.589743589728e+001 2.000000000000e+001 0.000000000000e+000
          3.424338337179e+001 1.480928422469e+001 0.000000000000e+000
          3.076923076909e+001 2.000000000000e+001 0.000000000000e+000
          3.005689385761e+001 1.060364436599e+001 0.000000000000e+000
          6.153846153820e+001 2.000000000000e+001 0.000000000000e+000
          5.861144803786e+001 1.567337793620e+001 0.000000000000e+000
          5.641025641001e+001 2.000000000000e+001 0.000000000000e+000
          6.364098538444e+001 1.500000000000e+001 0.000000000000e+000
          5.989457932650e+001 1.030421617259e+001 0.000000000000e+000
          6.666666666639e+001 2.000000000000e+001 0.000000000000e+000
          6.863961921157e+001 1.499549437831e+001 0.000000000000e+000
          6.567188823475e+001 9.930555555556e+000 0.000000000000e+000
          8.717948717914e+001 2.000000000000e+001 0.000000000000e+000
          8.205128205096e+001 2.000000000000e+001 0.000000000000e+000
          8.825660559227e+001 1.457690124438e+001 0.000000000000e+000
          9.230769230733e+001 2.000000000000e+001 0.000000000000e+000
          8.616129659787e+001 8.733480538898e+000 0.000000000000e+000
          9.150074733547e+001 1.030748155382e+001 0.000000000000e+000
          1.384615384618e+002 0.000000000000e+000 0.000000000000e+000
          1.415932379237e+002 4.335026874129e+000 0.000000000000e+000
          1.435897435900e+002 0.000000000000e+000 0.000000000000e+000
          1.370080938287e+002 5.069444256391e+000 0.000000000000e+000
          1.404454238813e+002 9.718036725159e+000 0.000000000000e+000
          1.333333333336e+002 0.000000000000e+000 0.000000000000e+000
          1.076923076927e+002 0.000000000000e+000 0.000000000000e+000
          1.108991862601e+002 4.857696974887e+000 0.000000000000e+000
          1.128205128209e+002 0.000000000000e+000 0.000000000000e+000
          1.230769230773e+002 0.000000000000e+000 0.000000000000e+000
          1.282051282055e+002 0.000000000000e+000 0.000000000000e+000
          1.421648412768e+002 1.518915604417e+001 0.000000000000e+000
          1.384615384612e+002 2.000000000000e+001 0.000000000000e+000
          1.435897435894e+002 2.000000000000e+001 0.000000000000e+000
          1.370080938284e+002 1.506944425639e+001 0.000000000000e+000
          1.333333333330e+002 2.000000000000e+001 0.000000000000e+000
          1.230769230766e+002 2.000000000000e+001 0.000000000000e+000
          1.282051282048e+002 2.000000000000e+001 0.000000000000e+000
          1.106262295343e+002 1.449114286029e+001 0.000000000000e+000
          1.076923076919e+002 2.000000000000e+001 0.000000000000e+000
          1.128205128202e+002 2.000000000000e+001 0.000000000000e+000
          1.060408540078e+002 1.575486111111e+001 0.000000000000e+000
          5.803874767782e+001 4.824157678094e+000 0.000000000000e+000
          6.153846153872e+001 0.000000000000e+000 0.000000000000e+000
          5.641025641050e+001 0.000000000000e+000 0.000000000000e+000
          6.364098538470e+001 5.000000000000e+000 0.000000000000e+000
          6.666666666694e+001 0.000000000000e+000 0.000000000000e+000
          6.863961921185e+001 4.974991732804e+000 0.000000000000e+000
          9.032615013277e+001 4.937074209742e+000 0.000000000000e+000
          9.230769230805e+001 0.000000000000e+000 0.000000000000e+000
          8.717948717983e+001 0.000000000000e+000 0.000000000000e+000
          1.524809577360e+002 1.505950683102e+001 0.000000000000e+000
          1.487179487177e+002 2.000000000000e+001 0.000000000000e+000
          1.538461538459e+002 2.000000000000e+001 0.000000000000e+000
          1.472187406962e+002 1.523528621385e+001 0.000000000000e+000
          4.767577943456e+001 4.990079365079e+000 0.000000000000e+000
          5.128205128227e+001 0.000000000000e+000 0.000000000000e+000
          4.615384615405e+001 0.000000000000e+000 0.000000000000e+000
          5.289188460113e+001 4.768994659147e+000 0.000000000000e+000
          4.250523169876e+001 4.799709939732e+000 0.000000000000e+000
          4.102564102582e+001 0.000000000000e+000 0.000000000000e+000
          3.076923076937e+001 0.000000000000e+000 0.000000000000e+000
          2.564102564114e+001 0.000000000000e+000 0.000000000000e+000
          3.231012230340e+001 5.174437830688e+000 0.000000000000e+000
          3.589743589759e+001 0.000000000000e+000 0.000000000000e+000
          3.747197445908e+001 4.807502868680e+000 0.000000000000e+000
          1.589743589741e+002 2.000000000000e+001 0.000000000000e+000
          1.551353134763e+002 9.374350718944e+000 0.000000000000e+000
          7.179487179516e+001 0.000000000000e+000 0.000000000000e+000
          7.179487179458e+001 2.000000000000e+001 0.000000000000e+000
          1.179487179484e+002 2.000000000000e+001 0.000000000000e+000
          1.179487179491e+002 0.000000000000e+000 0.000000000000e+000
[...]
      <PointData Scalars="Capillary_Pressure">
        <DataArray type="Float64" Name="Capillary_Pressure" format="ascii">
          0.000000000000e+000 0.000000000000e+000 0.000000000000e+000 3.800007448776e+005 3.856966360373e+005 3.856608227400e+005 3.670201588692e+005 3.669975629637e+005 3.716988050128e+005 3.706238690776e+005 3.646406084520e+005 3.737613203847e+005 3.670380636286e+005 3.671090597843e+005 3.717486484768e+005 2.105528920243e+005 2.008595089193e+005 2.106171534230e+005 1.956301516718e+005 2.105504393994e+005 1.956225629478e+005 3.620573454652e+005 3.617110034406e+005 3.623903882487e+005 2.307378560461e+005 2.233487370583e+005 2.368802457014e+005 2.235589063347e+005 2.307445589607e+005 2.235600271869e+005 0.000000000000e+000 1.183156846829e+004 5.823213912759e+004 3.028905383866e+005 2.967595699436e+005 2.961886527699e+005 3.028872962846e+005 2.961388682833e+005 0.000000000000e+000 5.131644643496e+004 0.000000000000e+000 0.000000000000e+000 0.000000000000e+000 0.000000000000e+000 0.000000000000e+000 0.000000000000e+000 0.000000000000e+000 0.000000000000e+000 0.000000000000e+000 0.000000000000e+000 0.000000000000e+000 0.000000000000e+000 0.000000000000e+000 0.000000000000e+000 0.000000000000e+000 0.000000000000e+000 0.000000000000e+000 0.000000000000e+000 0.000000000000e+000 0.000000000000e+000 1.335413413539e+005 1.229445508543e+005 1.064594236699e+005 3.356323280141e+005 3.362865150424e+005 3.401848018962e+005 3.429133904583e+005 3.455052362011e+005 3.425902260307e+005 3.525626880968e+005 3.529819571477e+005 3.577739650505e+005 3.578173854605e+005 3.222114067152e+005 3.253931855275e+005 3.281200990564e+005 3.193178247674e+005 3.250388876236e+005 3.158500174795e+005 3.131743497637e+005 3.165809408454e+005 2.874368855348e+005 2.961128548012e+005 2.850365327806e+005 2.808846226421e+005 2.884254362932e+005 2.813354068212e+005 1.755742750318e+005 1.647941104830e+005 1.563739959015e+005 1.806691839840e+005 1.683597143201e+005 1.920071001112e+005 2.518756873347e+005 2.476739727982e+005 2.420566888690e+005 2.199533723623e+005 2.068793930941e+005 1.651347641372e+005 1.755914174831e+005 1.563760251636e+005 1.806899037061e+005 1.920163529309e+005 2.199533465387e+005 2.068829118612e+005 2.470768746521e+005 2.518776861179e+005 2.420619399338e+005 2.567283669569e+005 3.276767930366e+005 3.221837441157e+005 3.281041214830e+005 3.192848614721e+005 3.158311089555e+005 3.131609883146e+005 2.817861417454e+005 2.809095856552e+005 2.881084990135e+005 1.144166949676e+005 1.336357303343e+005 1.020909636282e+005 1.412580006948e+005 3.396723264048e+005 3.355887601167e+005 3.401596618186e+005 3.322561671128e+005 3.445131891392e+005 3.454917223798e+005 3.576921343910e+005 3.622803089457e+005 3.553349605052e+005 3.524928875768e+005 3.493353297554e+005 4.946624757123e+004 9.648961547450e+004 3.087680650110e+005 3.087768873384e+005 2.311845950033e+005 2.311892843145e+005 3.776346711587e+005 3.789480935165e+005 0.000000000000e+000 0.000000000000e+000 0.000000000000e+000 2.369517123738e+005 2.369241818955e+005 0.000000000000e+000 2.764892595274e+005 2.758593516658e+005 2.724736012402e+005 2.693989046382e+005 2.620311809767e+005 2.724764561720e+005 2.688489711334e+005 2.620350466532e+005 2.961318926029e+005 3.022553493426e+005 3.022572649448e+005 4.888818533351e+004 0.000000000000e+000 3.811224573657e+005 0.000000000000e+000 0.000000000000e+000 2.620751002609e+005 2.653020335117e+005 3.353626592912e+005 2.729269684545e+005 1.880042386854e+005 2.569464386620e+005 1.291106825983e+005 3.522216435078e+005 2.660368354731e+005 2.763682305192e+005 2.562923404546e+005 0.000000000000e+000 0.000000000000e+000 3.087426765278e+005 0.000000000000e+000 3.086589891637e+005 3.086513858089e+005 3.727846272523e+005 2.883492692120e+005 2.482926658359e+005 3.750056995519e+005 3.769894594727e+005 1.479784867682e+005 3.487408765550e+005 3.315951964126e+005 3.484683748188e+005 1.487708888489e+005 3.312999094868e+005 3.644685434960e+005 3.623002153165e+005 1.509868222644e+005 3.293811953936e+005 3.467117865285e+005 2.916934995553e+005 3.769407993795e+005 3.811256487711e+005 3.811638296853e+005 3.028512292714e+005 9.889569988360e+004 3.580647684874e+005 3.856579826993e+005 3.856355761979e+005 0.000000000000e+000 
        </DataArray>
        <DataArray type="Float64" Name="Gas_Pressure" format="ascii">
          1.000000000000e+006 1.000000000000e+006 1.000000000000e+006 1.000000000000e+006 1.000000000000e+006 1.000000000000e+006 1.000000000000e+006 1.000000000000e+006 1.000000000000e+006 1.000000000000e+006 1.000000000000e+006 1.000000000000e+006 1.000000000000e+006 1.000000000000e+006 1.000000000000e+006 1.000000000000e+006 1.000000000000e+006 1.000000000000e+006 1.000000000000e+006 1.000000000000e+006 1.000000000000e+006 1.000000000000e+006 1.000000000000e+006 1.000000000000e+006 1.000000000000e+006 1.000000000000e+006 1.000000000000e+006 1.000000000000e+006 1.000000000000e+006 1.000000000000e+006 1.000000000000e+006 1.000000000000e+006 1.000000000000e+006 1.000000000000e+006 1.000000000000e+006 1.000000000000e+006 1.000000000000e+006 1.000000000000e+006 1.000000000000e+006 1.000000000000e+006 1.000000000000e+006 1.000000000000e+006 1.000000000000e+006 1.000000000000e+006 1.000000000000e+006 1.000000000000e+006 1.000000000000e+006 1.000000000000e+006 1.000000000000e+006 1.000000000000e+006 1.000000000000e+006 1.000000000000e+006 1.000000000000e+006 1.000000000000e+006 1.000000000000e+006 1.000000000000e+006 1.000000000000e+006 1.000000000000e+006 1.000000000000e+006 1.000000000000e+006 1.000000000000e+006 1.000000000000e+006 1.000000000000e+006 1.000000000000e+006 1.000000000000e+006 1.000000000000e+006 1.000000000000e+006 1.000000000000e+006 1.000000000000e+006 1.000000000000e+006 1.000000000000e+006 1.000000000000e+006 1.000000000000e+006 1.000000000000e+006 1.000000000000e+006 1.000000000000e+006 1.000000000000e+006 1.000000000000e+006 1.000000000000e+006 1.000000000000e+006 1.000000000000e+006 1.000000000000e+006 1.000000000000e+006 1.000000000000e+006 1.000000000000e+006 1.000000000000e+006 1.000000000000e+006 1.000000000000e+006 1.000000000000e+006 1.000000000000e+006 1.000000000000e+006 1.000000000000e+006 1.000000000000e+006 1.000000000000e+006 1.000000000000e+006 1.000000000000e+006 1.000000000000e+006 1.000000000000e+006 1.000000000000e+006 1.000000000000e+006 1.000000000000e+006 1.000000000000e+006 1.000000000000e+006 1.000000000000e+006 1.000000000000e+006 1.000000000000e+006 1.000000000000e+006 1.000000000000e+006 1.000000000000e+006 1.000000000000e+006 1.000000000000e+006 1.000000000000e+006 1.000000000000e+006 1.000000000000e+006 1.000000000000e+006 1.000000000000e+006 1.000000000000e+006 1.000000000000e+006 1.000000000000e+006 1.000000000000e+006 1.000000000000e+006 1.000000000000e+006 1.000000000000e+006 1.000000000000e+006 1.000000000000e+006 1.000000000000e+006 1.000000000000e+006 1.000000000000e+006 1.000000000000e+006 1.000000000000e+006 1.000000000000e+006 1.000000000000e+006 1.000000000000e+006 1.000000000000e+006 1.000000000000e+006 1.000000000000e+006 1.000000000000e+006 1.000000000000e+006 1.000000000000e+006 1.000000000000e+006 1.000000000000e+006 1.000000000000e+006 1.000000000000e+006 1.000000000000e+006 1.000000000000e+006 1.000000000000e+006 1.000000000000e+006 1.000000000000e+006 1.000000000000e+006 1.000000000000e+006 1.000000000000e+006 1.000000000000e+006 1.000000000000e+006 1.000000000000e+006 1.000000000000e+006 1.000000000000e+006 1.000000000000e+006 1.000000000000e+006 1.000000000000e+006 1.000000000000e+006 1.000000000000e+006 1.000000000000e+006 1.000000000000e+006 1.000000000000e+006 1.000000000000e+006 1.000000000000e+006 1.000000000000e+006 1.000000000000e+006 1.000000000000e+006 1.000000000000e+006 1.000000000000e+006 1.000000000000e+006 1.000000000000e+006 1.000000000000e+006 1.000000000000e+006 1.000000000000e+006 1.000000000000e+006 1.000000000000e+006 1.000000000000e+006 1.000000000000e+006 1.000000000000e+006 1.000000000000e+006 1.000000000000e+006 1.000000000000e+006 1.000000000000e+006 1.000000000000e+006 1.000000000000e+006 1.000000000000e+006 1.000000000000e+006 1.000000000000e+006 1.000000000000e+006 1.000000000000e+006 1.000000000000e+006 1.000000000000e+006 1.000000000000e+006 1.000000000000e+006 1.000000000000e+006 1.000000000000e+006 1.000000000000e+006 1.000000000000e+006 1.000000000000e+006 1.000000000000e+006 1.000000000000e+006 1.000000000000e+006 1.000000000000e+006 1.000000000000e+006 
        </DataArray>
        <DataArray type="Float64" Name="LIQUID_PRESSURE" format="ascii">
          1.000033707313e+006 1.000022404723e+006 1.000016847262e+006 1.000334394214e+006 1.000332913047e+006 1.000333214722e+006 1.000319973434e+006 1.000316974442e+006 1.000322659438e+006 1.000315379973e+006 1.000321541873e+006 1.000321580319e+006 1.000316562228e+006 1.000322478011e+006 1.000322138092e+006 1.000210298855e+006 1.000210890814e+006 1.000217926962e+006 1.000211085584e+006 1.000210289651e+006 1.000211075613e+006 1.000301936481e+006 1.000310188921e+006 1.000312468466e+006 1.000226313636e+006 1.000221795905e+006 1.000234467082e+006 1.000216606185e+006 1.000226271221e+006 1.000216588883e+006 1.000111694531e+006 1.000150171885e+006 1.000160986025e+006 1.000276949914e+006 1.000272779254e+006 1.000259852483e+006 1.000276816176e+006 1.000259093028e+006 1.000115811454e+006 1.000159216005e+006 1.000114712535e+006 1.000099378586e+006 1.000114869683e+006 1.000098112272e+006 1.000117750130e+006 1.000101319129e+006 1.000099696534e+006 1.000083490179e+006 1.000095540059e+006 1.000081890526e+006 1.000084461080e+006 1.000082501371e+006 1.000067051639e+006 1.000075721695e+006 1.000063500211e+006 1.000067508500e+006 1.000064525338e+006 1.000050379331e+006 1.000050587747e+006 1.000046613795e+006 1.000183503396e+006 1.000180481225e+006 1.000170603504e+006 1.000284599470e+006 1.000299032593e+006 1.000299406749e+006 1.000304935476e+006 1.000306387268e+006 1.000298005405e+006 1.000295569650e+006 1.000309279509e+006 1.000300108926e+006 1.000307303463e+006 1.000285690397e+006 1.000291308267e+006 1.000292623810e+006 1.000285888744e+006 1.000280930423e+006 1.000280485205e+006 1.000279625412e+006 1.000285309020e+006 1.000260274129e+006 1.000258727264e+006 1.000263511254e+006 1.000247465576e+006 1.000264542396e+006 1.000252731059e+006 1.000201314545e+006 1.000195588328e+006 1.000193238375e+006 1.000203097412e+006 1.000198682100e+006 1.000208754611e+006 1.000242308864e+006 1.000230503518e+006 1.000235184803e+006 1.000220908195e+006 1.000214681770e+006 1.000190807873e+006 1.000201324598e+006 1.000193206864e+006 1.000203122878e+006 1.000208764477e+006 1.000220925608e+006 1.000214693018e+006 1.000235318280e+006 1.000242266932e+006 1.000235150814e+006 1.000236612650e+006 1.000279375306e+006 1.000285882389e+006 1.000292757176e+006 1.000286134582e+006 1.000280613656e+006 1.000279716358e+006 1.000261531419e+006 1.000247304263e+006 1.000256410348e+006 1.000174063668e+006 1.000183438529e+006 1.000172552695e+006 1.000185855834e+006 1.000287891713e+006 1.000284946062e+006 1.000299658437e+006 1.000295785959e+006 1.000299714990e+006 1.000306539221e+006 1.000300894184e+006 1.000310233614e+006 1.000307355412e+006 1.000296248097e+006 1.000309087902e+006 1.000159380357e+006 1.000167914628e+006 1.000278458198e+006 1.000278400547e+006 1.000229094793e+006 1.000229056259e+006 1.000313189686e+006 1.000326675056e+006 1.000055296626e+006 1.000037721055e+006 1.000021956446e+006 1.000233772137e+006 1.000233912133e+006 1.000042087029e+006 1.000255179876e+006 1.000254227551e+006 1.000242722905e+006 1.000248851935e+006 1.000244971733e+006 1.000242694458e+006 1.000248677308e+006 1.000244902685e+006 1.000258708103e+006 1.000270676939e+006 1.000270663633e+006 1.000159243474e+006 1.000033615388e+006 1.000329779390e+006 1.000019080507e+006 1.000000000000e+006 1.000244846670e+006 1.000246165837e+006 1.000295453390e+006 1.000251210747e+006 1.000206322221e+006 1.000242398413e+006 1.000181220124e+006 1.000307029772e+006 1.000247824767e+006 1.000249363713e+006 1.000240846702e+006 1.000016815239e+006 1.000000000000e+006 1.000278102202e+006 1.000000000000e+006 1.000276245921e+006 1.000276292538e+006 1.000326079790e+006 1.000263245436e+006 1.000240177139e+006 1.000330451950e+006 1.000324004866e+006 1.000189719203e+006 1.000296617710e+006 1.000283288999e+006 1.000304737331e+006 1.000184842554e+006 1.000291432945e+006 1.000315110428e+006 1.000310022049e+006 1.000189939760e+006 1.000295332356e+006 1.000309398938e+006 1.000265897855e+006 1.000321008014e+006 1.000328947110e+006 1.000329232616e+006 1.000276211287e+006 1.000169308221e+006 1.000313963563e+006 1.000333253262e+006 1.000333455601e+006 1.000000000000e+006 
        </DataArray>
        <DataArray type="Float64" Name="MOLAR_FRACTION" format="ascii">
          2.111297029530e-005 1.437603181294e-005 1.105659968706e-005 1.092121593528e-004 1.089206178475e-004 1.089790197176e-004 1.068311611547e-004 1.062903392837e-004 1.072226592636e-004 1.059257202208e-004 1.071785501215e-004 1.069900298023e-004 1.062152081600e-004 1.072853618771e-004 1.071272564782e-004 9.201399079490e-005 9.251817920338e-005 9.380270130684e-005 9.275742000467e-005 9.201314420485e-005 9.275722802191e-005 1.036743455791e-004 1.051916511688e-004 1.055901118034e-004 9.484663783603e-005 9.415765611685e-005 9.640168527048e-005 9.295250005721e-005 9.483836129784e-005 9.294952095342e-005 7.009923645435e-005 7.742539352337e-005 8.103004071771e-005 1.016535192925e-004 1.011759369756e-004 9.861620825691e-005 1.016269275351e-004 9.846605857983e-005 7.008533641072e-005 8.052380957242e-005 7.142646387130e-005 6.134645265227e-005 6.764691019441e-005 6.023996485258e-005 7.138211769085e-005 6.133013001531e-005 6.022587851631e-005 5.128540054240e-005 5.769331640077e-005 5.014219051143e-005 5.127855229494e-005 5.010180005535e-005 4.122748227220e-005 4.617910096738e-005 3.901517057234e-005 4.122445529667e-005 3.946688701666e-005 3.117038934965e-005 3.116903881790e-005 2.881487540177e-005 8.726173521790e-005 8.658792053761e-005 8.401180636579e-005 1.014297205955e-004 1.041233583955e-004 1.040117578417e-004 1.049288842897e-004 1.050880054568e-004 1.036431410867e-004 1.028049916563e-004 1.053177002662e-004 1.034634006355e-004 1.047868141329e-004 1.022990428823e-004 1.032123396472e-004 1.033230034029e-004 1.024928069717e-004 1.012402904469e-004 1.016301671434e-004 1.016073409106e-004 1.025319470848e-004 9.918686636312e-005 9.839212190309e-005 9.998332562441e-005 9.691873650087e-005 9.999853437487e-005 9.798075769271e-005 9.099174249885e-005 8.981645508493e-005 8.941619695713e-005 9.128539066694e-005 9.053207110806e-005 9.231684336589e-005 9.736841480758e-005 9.500664632646e-005 9.630973835199e-005 9.410240719811e-005 9.319490608115e-005 8.856506589507e-005 9.099050895666e-005 8.942901979736e-005 9.128594732736e-005 9.231638484026e-005 9.410503033513e-005 9.319584449415e-005 9.609457057858e-005 9.736458782768e-005 9.630157104276e-005 9.589287134578e-005 1.008098209887e-004 1.023409195055e-004 1.033461168544e-004 1.025448863655e-004 1.016587258814e-004 1.016271033555e-004 9.976308615431e-005 9.688422362235e-005 9.836425731889e-005 8.488381233679e-005 8.722995567217e-005 8.465756588695e-005 8.778742986683e-005 1.018710507839e-004 1.015010166224e-004 1.040568113744e-004 1.037131221600e-004 1.038783035926e-004 1.051123803703e-004 1.036142381039e-004 1.051814914539e-004 1.048822091027e-004 1.029338432225e-004 1.054283602551e-004 8.036847434437e-005 8.329755964678e-005 1.016199077398e-004 1.016073584095e-004 9.546406905549e-005 9.545730100188e-005 1.054342296925e-004 1.078393908775e-004 3.402523185225e-005 2.352878840823e-005 1.411847370073e-005 9.624187842091e-005 9.627186351771e-005 2.616977517103e-005 9.875481473197e-005 9.859403340323e-005 9.638346560438e-005 9.783062483088e-005 9.741110180804e-005 9.637658181824e-005 9.782670402795e-005 9.739783136137e-005 9.838611765485e-005 1.004411116314e-004 1.004380725271e-004 8.034139039925e-005 2.111356043115e-005 1.083753429483e-004 1.240981251030e-005 1.000000000000e-006 9.737547082682e-005 9.748583157688e-005 1.034959832994e-004 9.813000453441e-005 9.185485055231e-005 9.712626060890e-005 8.669857449263e-005 1.049342873881e-004 9.779856903952e-005 9.755670975266e-005 9.682788999597e-005 1.105679400623e-005 1.000000000000e-006 1.015539307833e-004 1.000000000000e-006 1.011943356544e-004 1.012045591088e-004 1.078182517253e-004 9.974238788296e-005 9.709273586071e-005 1.085654358288e-004 1.073853575587e-004 8.869520458381e-005 1.031356507404e-004 1.013684688912e-004 1.046566192572e-004 8.734391329852e-005 1.029324319090e-004 1.060130627577e-004 1.051451976176e-004 8.867500209253e-005 1.037665011611e-004 1.055905837557e-004 1.000874372139e-004 1.068461046968e-004 1.082308728318e-004 1.082827674928e-004 1.015142386876e-004 8.354475904237e-005 1.059980278518e-004 1.089842615394e-004 1.090204408913e-004 1.000000000000e-006 
        </DataArray>
        <DataArray type="Float64" Name="SATURATION" format="ascii">