<?xml version="1.0"?>
<VTKFile type="UnstructuredGrid" version="0.1" byte_order="LittleEndian">
  <UnstructuredGrid>
    <Piece NumberOfPoints="2604" NumberOfCells="4910">
      <Points>
        <DataArray type="Float64" NumberOfComponents="3" format="ascii">
          0.000000000000e+000 0.000000000000e+000 0.000000000000e+000
          2.000000000000e+002 0.000000000000e+000 0.000000000000e+000
          2.000000000000e+002 2.000000000000e+001 0.000000000000e+000
          0.000000000000e+000 2.000000000000e+001 0.000000000000e+000
          1.492537313427e+000 0.000000000000e+000 0.000000000000e+000
          2.985074626854e+000 0.000000000000e+000 0.000000000000e+000
          4.477611940281e+000 0.000000000000e+000 0.000000000000e+000
          5.970149253708e+000 0.000000000000e+000 0.000000000000e+000
          7.462686567135e+000 0.000000000000e+000 0.000000000000e+000
          8.955223880561e+000 0.000000000000e+000 0.000000000000e+000
          1.044776119399e+001 0.000000000000e+000 0.000000000000e+000
          1.194029850741e+001 0.000000000000e+000 0.000000000000e+000
          1.343283582084e+001 0.000000000000e+000 0.000000000000e+000
          1.492537313427e+001 0.000000000000e+000 0.000000000000e+000
          1.641791044770e+001 0.000000000000e+000 0.000000000000e+000
          1.791044776112e+001 0.000000000000e+000 0.000000000000e+000
          1.940298507455e+001 0.000000000000e+000 0.000000000000e+000
          2.089552238798e+001 0.000000000000e+000 0.000000000000e+000
          2.238805970141e+001 0.000000000000e+000 0.000000000000e+000
          2.388059701484e+001 0.000000000000e+000 0.000000000000e+000
          2.537313432826e+001 0.000000000000e+000 0.000000000000e+000
          2.686567164169e+001 0.000000000000e+000 0.000000000000e+000
          2.835820895511e+001 0.000000000000e+000 0.000000000000e+000
          2.985074626854e+001 0.000000000000e+000 0.000000000000e+000
          3.134328358196e+001 0.000000000000e+000 0.000000000000e+000
          3.283582089539e+001 0.000000000000e+000 0.000000000000e+000
          3.432835820881e+001 0.000000000000e+000 0.000000000000e+000
          3.582089552224e+001 0.000000000000e+000 0.000000000000e+000
          3.731343283566e+001 0.000000000000e+000 0.000000000000e+000
          3.880597014909e+001 0.000000000000e+000 0.000000000000e+000
          4.029850746251e+001 0.000000000000e+000 0.000000000000e+000
          4.179104477594e+001 0.000000000000e+000 0.000000000000e+000
          4.328358208936e+001 0.000000000000e+000 0.000000000000e+000
          4.477611940279e+001 0.000000000000e+000 0.000000000000e+000
          4.626865671621e+001 0.000000000000e+000 0.000000000000e+000
          4.776119402964e+001 0.000000000000e+000 0.000000000000e+000
          4.925373134306e+001 0.000000000000e+000 0.000000000000e+000
          5.074626865649e+001 0.000000000000e+000 0.000000000000e+000
          5.223880596991e+001 0.000000000000e+000 0.000000000000e+000
          5.373134328334e+001 0.000000000000e+000 0.000000000000e+000
          5.522388059676e+001 0.000000000000e+000 0.000000000000e+000
          5.671641791019e+001 0.000000000000e+000 0.000000000000e+000
          5.820895522361e+001 0.000000000000e+000 0.000000000000e+000
          5.970149253704e+001 0.000000000000e+000 0.000000000000e+000
          6.119402985046e+001 0.000000000000e+000 0.000000000000e+000
          6.268656716389e+001 0.000000000000e+000 0.000000000000e+000
          6.417910447732e+001 0.000000000000e+000 0.000000000000e+000
          6.567164179075e+001 0.000000000000e+000 0.000000000000e+000
          6.716417910418e+001 0.000000000000e+000 0.000000000000e+000
          6.865671641761e+001 0.000000000000e+000 0.000000000000e+000
          7.014925373104e+001 0.000000000000e+000 0.000000000000e+000
          7.164179104447e+001 0.000000000000e+000 0.000000000000e+000
          7.313432835790e+001 0.000000000000e+000 0.000000000000e+000
          7.462686567133e+001 0.000000000000e+000 0.000000000000e+000
          7.611940298476e+001 0.000000000000e+000 0.000000000000e+000
          7.761194029819e+001 0.000000000000e+000 0.000000000000e+000
          7.910447761162e+001 0.000000000000e+000 0.000000000000e+000
          8.059701492505e+001 0.000000000000e+000 0.000000000000e+000
          8.208955223848e+001 0.000000000000e+000 0.000000000000e+000
          8.358208955191e+001 0.000000000000e+000 0.000000000000e+000
          8.507462686534e+001 0.000000000000e+000 0.000000000000e+000
          8.656716417877e+001 0.000000000000e+000 0.000000000000e+000
          8.805970149220e+001 0.000000000000e+000 0.000000000000e+000
          8.955223880563e+001 0.000000000000e+000 0.000000000000e+000
          9.104477611907e+001 0.000000000000e+000 0.000000000000e+000
          9.253731343250e+001 0.000000000000e+000 0.000000000000e+000
          9.402985074593e+001 0.000000000000e+000 0.000000000000e+000
          9.552238805936e+001 0.000000000000e+000 0.000000000000e+000
          9.701492537279e+001 0.000000000000e+000 0.000000000000e+000
          9.850746268622e+001 0.000000000000e+000 0.000000000000e+000
          9.999999999965e+001 0.000000000000e+000 0.000000000000e+000
          1.014925373131e+002 0.000000000000e+000 0.000000000000e+000
          1.029850746265e+002 0.000000000000e+000 0.000000000000e+000
          1.044776119399e+002 0.000000000000e+000 0.000000000000e+000
          1.059701492534e+002 0.000000000000e+000 0.000000000000e+000
          1.074626865668e+002 0.000000000000e+000 0.000000000000e+000
          1.089552238802e+002 0.000000000000e+000 0.000000000000e+000
          1.104477611937e+002 0.000000000000e+000 0.000000000000e+000
          1.119402985071e+002 0.000000000000e+000 0.000000000000e+000
          1.134328358205e+002 0.000000000000e+000 0.000000000000e+000
          1.149253731340e+002 0.000000000000e+000 0.000000000000e+000
          1.164179104474e+002 0.000000000000e+000 0.000000000000e+000
          1.179104477608e+002 0.000000000000e+000 0.000000000000e+000
          1.194029850742e+002 0.000000000000e+000 0.000000000000e+000
          1.208955223877e+002 0.000000000000e+000 0.000000000000e+000
          1.223880597011e+002 0.000000000000e+000 0.000000000000e+000
          1.238805970145e+002 0.000000000000e+000 0.000000000000e+000
          1.253731343280e+002 0.000000000000e+000 0.000000000000e+000
          1.268656716414e+002 0.000000000000e+000 0.000000000000e+000
          1.283582089548e+002 0.000000000000e+000 0.000000000000e+000
          1.298507462683e+002 0.000000000000e+000 0.000000000000e+000
          1.313432835817e+002 0.000000000000e+000 0.000000000000e+000
          1.328358208952e+002 0.000000000000e+000 0.000000000000e+000
          1.343283582086e+002 0.000000000000e+000 0.000000000000e+000
          1.358208955220e+002 0.000000000000e+000 0.000000000000e+000
          1.373134328355e+002 0.000000000000e+000 0.000000000000e+000
          1.388059701489e+002 0.000000000000e+000 0.000000000000e+000
          1.402985074624e+002 0.000000000000e+000 0.000000000000e+000
          1.417910447758e+002 0.000000000000e+000 0.000000000000e+000
          1.432835820892e+002 0.000000000000e+000 0.000000000000e+000
          1.447761194027e+002 0.000000000000e+000 0.000000000000e+000
          1.462686567161e+002 0.000000000000e+000 0.000000000000e+000
          1.477611940296e+002 0.000000000000e+000 0.000000000000e+000
          1.492537313430e+002 0.000000000000e+000 0.000000000000e+000
          1.507462686564e+002 0.000000000000e+000 0.000000000000e+000
          1.522388059699e+002 0.000000000000e+000 0.000000000000e+000
          1.537313432833e+002 0.000000000000e+000 0.000000000000e+000
          1.552238805968e+002 0.000000000000e+000 0.000000000000e+000
          1.567164179102e+002 0.000000000000e+000 0.000000000000e+000
          1.582089552237e+002 0.000000000000e+000 0.000000000000e+000
          1.597014925371e+002 0.000000000000e+000 0.000000000000e+000
          1.611940298505e+002 0.000000000000e+000 0.000000000000e+000
          1.626865671640e+002 0.000000000000e+000 0.000000000000e+000
          1.641791044774e+002 0.000000000000e+000 0.000000000000e+000
          1.656716417909e+002 0.000000000000e+000 0.000000000000e+000
          1.671641791043e+002 0.000000000000e+000 0.000000000000e+000
          1.686567164177e+002 0.000000000000e+000 0.000000000000e+000
          1.701492537312e+002 0.000000000000e+000 0.000000000000e+000
          1.716417910446e+002 0.000000000000e+000 0.000000000000e+000
          1.731343283581e+002 0.000000000000e+000 0.000000000000e+000
          1.746268656715e+002 0.000000000000e+000 0.000000000000e+000
          1.761194029849e+002 0.000000000000e+000 0.000000000000e+000
          1.776119402984e+002 0.000000000000e+000 0.000000000000e+000
          1.791044776118e+002 0.000000000000e+000 0.000000000000e+000
          1.805970149253e+002 0.000000000000e+000 0.000000000000e+000
          1.820895522387e+002 0.000000000000e+000 0.000000000000e+000
          1.835820895521e+002 0.000000000000e+000 0.000000000000e+000
          1.850746268656e+002 0.000000000000e+000 0.000000000000e+000
          1.865671641790e+002 0.000000000000e+000 0.000000000000e+000
          1.880597014925e+002 0.000000000000e+000 0.000000000000e+000
          1.895522388059e+002 0.000000000000e+000 0.000000000000e+000
          1.910447761194e+002 0.000000000000e+000 0.000000000000e+000
          1.925373134328e+002 0.000000000000e+000 0.000000000000e+000
          1.940298507462e+002 0.000000000000e+000 0.000000000000e+000
          1.955223880597e+002 0.000000000000e+000 0.000000000000e+000
          1.970149253731e+002 0.000000000000e+000 0.000000000000e+000
          1.985074626866e+002 0.000000000000e+000 0.000000000000e+000
          2.000000000000e+002 1.428571428570e+000 0.000000000000e+000
          2.000000000000e+002 2.857142857140e+000 0.000000000000e+000
[...]
      <PointData Scalars="Capillary_Pressure">
        <DataArray type="Float64" Name="Capillary_Pressure" format="ascii">
          3.772432214057e+005 0.000000000000e+000 0.000000000000e+000 3.772470253054e+005 3.774861394962e+005 3.746591919160e+005 3.737911268871e+005 3.718114806755e+005 3.715381544707e+005 3.695993158792e+005 3.675354499048e+005 3.674650816113e+005 3.652617983930e+005 3.651145766424e+005 3.632430255075e+005 3.608267397830e+005 3.608755389757e+005 3.588405058619e+005 3.584591195332e+005 3.563301254365e+005 3.528759144865e+005 3.527218433887e+005 3.521832541457e+005 3.491390108676e+005 3.488524241551e+005 3.466562931022e+005 3.460772636724e+005 3.429019751588e+005 3.424580553853e+005 3.403946485940e+005 3.398216634786e+005 3.365903707058e+005 3.361259191750e+005 3.341634803266e+005 3.335016513224e+005 3.298543338374e+005 3.298759183901e+005 3.272780081233e+005 3.248852183626e+005 3.247003627890e+005 3.239945424946e+005 3.208114730280e+005 3.182009353154e+005 3.178891522286e+005 3.142474243995e+005 3.138585439563e+005 3.110331721111e+005 3.106689501638e+005 3.082673793341e+005 3.074410318107e+005 3.033603911392e+005 3.032796171366e+005 2.994267921762e+005 2.989859658000e+005 2.950168687681e+005 2.937640461932e+005 2.916317773794e+005 2.912938432187e+005 2.902702785137e+005 2.865039819572e+005 2.832980478151e+005 2.830780949433e+005 2.790691947267e+005 2.784457144671e+005 2.756093772138e+005 2.722759377734e+005 2.693203209358e+005 2.688466044861e+005 2.642846820790e+005 2.628125267115e+005 2.602606669480e+005 2.571679277753e+005 2.564773790230e+005 2.536668598578e+005 2.499786532637e+005 2.466935919549e+005 2.463125515795e+005 2.428350220903e+005 2.396546067071e+005 2.385046264440e+005 2.327609891425e+005 2.294420936670e+005 2.264172442510e+005 2.228453348650e+005 2.193949506429e+005 2.157165602360e+005 2.151470595431e+005 2.117155178383e+005 2.078991462693e+005 2.044081095870e+005 1.971497796803e+005 1.933510169500e+005 1.894850727435e+005 1.851554680353e+005 1.826178878934e+005 1.749777905783e+005 1.704833248856e+005 1.681167185124e+005 1.598540933744e+005 1.535845654300e+005 1.505985418891e+005 1.402356174379e+005 1.336077164347e+005 1.263982704791e+005 1.173814575623e+005 1.078497809550e+005 9.734672667680e+004 8.444299013556e+004 6.997300865059e+004 5.145086229860e+004 2.654242842420e+004 0.000000000000e+000 0.000000000000e+000 0.000000000000e+000 0.000000000000e+000 0.000000000000e+000 0.000000000000e+000 0.000000000000e+000 0.000000000000e+000 0.000000000000e+000 0.000000000000e+000 0.000000000000e+000 0.000000000000e+000 0.000000000000e+000 0.000000000000e+000 0.000000000000e+000 0.000000000000e+000 0.000000000000e+000 0.000000000000e+000 0.000000000000e+000 0.000000000000e+000 0.000000000000e+000 0.000000000000e+000 0.000000000000e+000 0.000000000000e+000 0.000000000000e+000 0.000000000000e+000 0.000000000000e+000 0.000000000000e+000 0.000000000000e+000 0.000000000000e+000 0.000000000000e+000 0.000000000000e+000 0.000000000000e+000 0.000000000000e+000 0.000000000000e+000 0.000000000000e+000 0.000000000000e+000 0.000000000000e+000 0.000000000000e+000 0.000000000000e+000 0.000000000000e+000 0.000000000000e+000 0.000000000000e+000 0.000000000000e+000 0.000000000000e+000 0.000000000000e+000 0.000000000000e+000 0.000000000000e+000 0.000000000000e+000 0.000000000000e+000 0.000000000000e+000 0.000000000000e+000 0.000000000000e+000 0.000000000000e+000 0.000000000000e+000 0.000000000000e+000 0.000000000000e+000 0.000000000000e+000 0.000000000000e+000 0.000000000000e+000 0.000000000000e+000 0.000000000000e+000 0.000000000000e+000 0.000000000000e+000 0.000000000000e+000 2.651436144727e+004 5.141896635981e+004 6.996458732704e+004 8.442849341593e+004 9.735167247637e+004 1.078754396024e+005 1.173713541267e+005 1.263976289771e+005 1.336003350727e+005 1.402236075645e+005 1.505970878578e+005 1.535755345594e+005 1.598336895092e+005 1.681077897331e+005 1.704768026704e+005 1.749882242824e+005 1.826068598479e+005 1.851512751384e+005 1.894744412441e+005 1.933270623157e+005 1.971497715344e+005 2.044102225211e+005 2.079034938668e+005 2.117181521286e+005 2.151403342429e+005 2.157254994658e+005 2.194008659462e+005 2.228676492727e+005 2.264148096806e+005 2.294520413410e+005 2.327318954119e+005 2.384911197994e+005 2.396477737955e+005 2.428514504577e+005 2.462974952044e+005 2.466818997059e+005 2.499708208031e+005 2.536534662519e+005 2.564922946439e+005 2.597563307172e+005 2.602642354638e+005 2.628025951947e+005 2.642530726900e+005 2.688597210034e+005 2.719769021118e+005 2.722843964637e+005 2.755305808425e+005 2.784634148767e+005 2.790842998315e+005 2.830668381169e+005 2.833071597886e+005 2.865423812127e+005 2.902685101403e+005 2.912945321361e+005 2.916560188684e+005 2.937735725499e+005 2.981334779785e+005 2.990036058760e+005 2.994219104743e+005 3.032965182613e+005 3.034067598041e+005 3.074281713472e+005 3.082342640689e+005 3.106606939038e+005 3.110186052529e+005 3.138322859194e+005 3.171095987653e+005 3.178888100537e+005 3.181692224163e+005 3.208178375460e+005 3.239833330251e+005 3.247099025668e+005 3.248716261244e+005 3.272709883805e+005 3.298823510060e+005 3.298487650015e+005 3.335027898366e+005 3.341582281811e+005 3.361238848302e+005 3.365919533569e+005 3.398202072787e+005 3.403931541285e+005 3.424576506553e+005 3.428931529305e+005 3.460829548533e+005 3.466487806103e+005 3.488489999317e+005 3.491446437618e+005 3.521860005103e+005 3.527173229177e+005 3.528795527950e+005 3.563199689043e+005 3.584546976127e+005 3.588363265668e+005 3.608835607784e+005 3.608191385172e+005 3.631626170145e+005 3.632144626497e+005 3.652689744424e+005 3.674740549390e+005 3.675127260946e+005 3.696129567978e+005 3.715425029801e+005 3.718225517311e+005 3.737509348202e+005 3.746652156771e+005 3.774846070674e+005 3.772488700366e+005 3.772469394731e+005 3.772482985441e+005 3.772479838970e+005 3.772427541629e+005 3.772458440951e+005 3.772469249169e+005 3.772430867645e+005 3.772451712960e+005 3.772503483380e+005 3.772444345935e+005 3.772458847821e+005 3.772454773153e+005 0.000000000000e+000 3.695917282492e+005 0.000000000000e+000 0.000000000000e+000 4.145303037341e+004 1.303947724406e+005 1.751009612190e+005 3.525293464674e+005 2.039484915310e+005 3.404015089636e+005 3.301106790861e+005 3.181284181828e+005 2.986939613817e+005 2.836498088159e+005 2.683889446633e+005 2.496799776821e+005 2.298824182208e+005 3.610563230626e+005 3.082493417952e+005 2.157067649400e+005 2.188144572455e+005 2.396314934782e+005 2.598023624950e+005 2.755082622245e+005 2.913013856163e+005 0.000000000000e+000 0.000000000000e+000 9.608134467937e+004 2.912929526548e+005 2.757145269432e+005 2.596245848189e+005 2.392318445109e+005 1.534081302307e+005 1.894471355180e+005 3.466629721610e+005 3.361851422272e+005 3.246441797363e+005 1.894371187595e+005 1.535639198095e+005 9.732844891358e+004 0.000000000000e+000 0.000000000000e+000 3.247290655688e+005 3.361282018795e+005 3.466443573190e+005 0.000000000000e+000 0.000000000000e+000 3.111204542260e+005 3.037637160595e+005 3.650973058145e+005 3.563131094516e+005 0.000000000000e+000 3.718148849914e+005 0.000000000000e+000 3.718277195307e+005 3.648597927841e+005 3.563562751034e+005 3.139685040882e+005 3.030652974692e+005 0.000000000000e+000 2.298946662509e+005 0.000000000000e+000 2.496735468977e+005 2.683847142612e+005 2.836372465724e+005 2.983404315099e+005 2.039829717439e+005 3.955904293986e+004 1.294941493826e+005 1.750867502237e+005 3.404259822475e+005 3.301620902463e+005 2.049461252196e+005 1.752245906364e+005 1.303264224125e+005 4.019127833273e+004 2.836526376595e+005 2.683744019210e+005 2.496966073773e+005 0.000000000000e+000 2.298496095386e+005 0.000000000000e+000 3.181876107336e+005 3.301142920523e+005 3.404198917126e+005 3.525363868677e+005 0.000000000000e+000 0.000000000000e+000 3.675150295405e+005 3.521829314532e+005 2.948629579870e+005 3.203767111871e+005 0.000000000000e+000 3.738106288037e+005 3.610438343315e+005 3.695537795261e+005 3.610659969254e+005 3.082007070189e+005 3.136854615229e+005 3.035072491385e+005 3.652731953839e+005 3.563025855559e+005 3.082319003339e+005 0.000000000000e+000 8.654765136886e+004 0.000000000000e+000 1.506985429716e+005 0.000000000000e+000 1.855832829537e+005 2.386297968777e+005 2.725112835824e+005 2.873273959379e+005 2.566289822187e+005 3.460946670545e+005 3.248314379626e+005 3.360921933505e+005 2.192947575414e+005 3.082756616203e+005 0.000000000000e+000 3.746506869520e+005 0.000000000000e+000 3.746490832339e+005 2.340851059901e+005 2.536155455584e+005 2.725117384657e+005 2.868869743960e+005 1.972796590535e+005 2.227849299129e+005 2.116790441988e+005 1.646261064890e+005 3.209779506107e+005 1.115473477568e+005 3.339774660811e+005 0.000000000000e+000 3.431579047511e+005 0.000000000000e+000 0.000000000000e+000 0.000000000000e+000 0.000000000000e+000 0.000000000000e+000 1.123857592135e+005 7.999725878653e+004 1.647535810182e+005 1.472152885055e+005 3.431051980451e+005 1.860927654345e+005 1.972918598466e+005 3.339395883230e+005 3.367382273249e+005 2.868420675698e+005 2.725036329553e+005 2.536047687731e+005 2.787460404546e+005 2.605720069592e+005 2.381513292681e+005 2.423998382464e+005 3.249274825226e+005 2.116806746343e+005 2.225692831387e+005 0.000000000000e+000 3.490065918472e+005 0.000000000000e+000 3.366759563753e+005 8.216533854343e+004 3.250090417072e+005 1.465722536821e+005 2.940406641443e+005 2.788795878576e+005 2.607040083195e+005 2.456646795720e+005 1.862621833869e+005 3.610342938507e+005 0.000000000000e+000 0.000000000000e+000 3.029283237152e+005 3.165910658070e+005 3.561553199283e+005 2.117745019310e+005 2.605768234637e+005 2.423162528242e+005 2.786833329431e+005 2.940265648328e+005 3.489813136907e+005 3.340097194557e+005 0.000000000000e+000 3.209761889865e+005 0.000000000000e+000 1.131148330450e+005 1.971892318930e+005 1.607051335746e+005 3.488513282084e+005 0.000000000000e+000 0.000000000000e+000 3.070074879119e+005 3.652641455454e+005 0.000000000000e+000 2.115949560861e+005 2.006689996997e+005 1.682159694048e+005 3.206429049153e+005 1.181667319379e+005 3.334506276449e+005 2.791159133449e+005 2.628157249541e+005 2.463888619919e+005 0.000000000000e+000 3.491395238917e+005 0.000000000000e+000 3.586216719289e+005 2.942336949266e+005 0.000000000000e+000 0.000000000000e+000 0.000000000000e+000 2.915445648156e+005 3.240396174140e+005 2.993710258889e+005 3.172054253708e+005 3.715573392247e+005 3.528389868793e+005 3.674339667101e+005 3.631282283576e+005 3.528353630164e+005 2.327344048813e+005 2.536616494177e+005 2.720086736813e+005 2.865422176739e+005 0.000000000000e+000 3.429004693258e+005 0.000000000000e+000 2.229208751319e+005 1.826465942551e+005 0.000000000000e+000 1.401225688725e+005 0.000000000000e+000 6.993046980990e+004 2.333272684097e+005 2.536963531865e+005 2.719672189760e+005 2.865063311715e+005 3.428253552680e+005 3.272382354268e+005 3.398314444266e+005 3.398261181771e+005 6.902054289220e+004 3.267941852548e+005 1.401445256575e+005 1.825559385416e+005 2.228931179666e+005 0.000000000000e+000 0.000000000000e+000 3.746511539264e+005 3.746623756777e+005 0.000000000000e+000 3.711009479935e+005 0.000000000000e+000 0.000000000000e+000 3.696437001772e+005 0.000000000000e+000 3.674376623645e+005 3.711072445344e+005 3.174008181594e+005 2.987915640797e+005 3.522806203136e+005 3.673492655819e+005 3.179416183383e+005 3.587244305670e+005 3.588691754150e+005 2.989121631183e+005 3.630167959501e+005 3.136084895701e+005 3.071157633487e+005 3.631663606673e+005 3.337698830150e+005 1.967626714566e+005 1.639367100141e+005 1.152772527535e+005 0.000000000000e+000 0.000000000000e+000 2.119720040606e+005 2.942646149402e+005 2.785027747050e+005 2.633649709543e+005 2.460632983817e+005 3.110194193117e+005 3.588043017639e+005 3.039433762498e+005 3.105377119495e+005 0.000000000000e+000 0.000000000000e+000 3.486982040194e+005 3.235239772577e+005 3.696701376016e+005 3.717718310246e+005 0.000000000000e+000 3.630688800789e+005 2.298901411949e+005 2.526334161128e+005 2.688823022409e+005 2.833138402581e+005 2.044400273278e+005 2.047038468455e+005 2.262988172261e+005 1.704237851693e+005 1.278254238853e+005 3.182008203009e+005 2.479384228449e+004 3.302239738193e+005 0.000000000000e+000 3.424819822057e+005 0.000000000000e+000 0.000000000000e+000 2.435024746423e+004 1.277666319041e+005 1.716164655454e+005 3.425012537841e+005 3.302294585164e+005 2.832974408754e+005 2.689051536547e+005 2.526619838314e+005 0.000000000000e+000 3.521711341178e+005 2.949509104781e+005 0.000000000000e+000 0.000000000000e+000 0.000000000000e+000 3.493078113574e+005 3.529472522780e+005 3.674250711967e+005 3.073785793896e+005 0.000000000000e+000 0.000000000000e+000 1.026129417196e+005 1.570380311667e+005 1.936921559966e+005 3.466990359291e+005 3.340604798824e+005 3.243154740481e+005 2.395913011230e+005 2.756860954788e+005 2.916594436570e+005 2.603037209311e+005 2.154818714004e+005 0.000000000000e+000 0.000000000000e+000 0.000000000000e+000 0.000000000000e+000 1.308985914048e+005 1.749838406174e+005 3.301929097128e+005 2.835221196930e+005 2.681073316864e+005 2.495003013912e+005 3.740376300399e+005 3.107509390993e+005 2.047282552922e+005 2.043056371769e+005 2.983520410613e+005 0.000000000000e+000 3.773310031982e+005 3.206590244934e+005 2.939315974883e+005 1.895090620158e+005 1.536353387151e+005 9.737547614472e+004 0.000000000000e+000 0.000000000000e+000 3.246899593850e+005 3.361041512251e+005 3.466530548165e+005 2.597511665068e+005 2.396560334147e+005 2.912968806570e+005 2.755966954555e+005 0.000000000000e+000 0.000000000000e+000 2.755602229208e+005 2.597280617794e+005 9.733241896749e+004 2.396604682830e+005 1.535895711188e+005 1.894391629721e+005 3.361214032997e+005 2.156735874314e+005 2.157296098945e+005 3.585895477743e+005 3.143566627797e+005 3.608423218951e+005 2.919486806634e+005 3.080920683572e+005 0.000000000000e+000 0.000000000000e+000 3.032725448879e+005 2.997795518054e+005 3.077600032020e+005 2.001469969798e+005 2.303727721133e+005 2.264994553050e+005 2.073703972303e+005 2.460053040179e+005 2.639155608604e+005 2.827096228720e+005 1.777818479698e+005 3.402208093237e+005 3.295733081892e+005 0.000000000000e+000 6.015348795399e+004 1.367952667791e+005 0.000000000000e+000 3.402162235419e+005 6.021919163200e+004 3.295640329644e+005 2.826934351256e+005 2.638843532161e+005 2.463843988004e+005 1.368027039721e+005 1.777978195474e+005 3.741291119613e+005 3.673028777697e+005 0.000000000000e+000 3.741255409630e+005 2.298697294968e+005 2.299230328894e+005 3.404273322551e+005 3.404413459257e+005 3.903893267162e+004 3.957745989265e+004 0.000000000000e+000 3.629686367099e+005 3.695837288927e+005 3.521603835498e+005 3.610833029552e+005 0.000000000000e+000 3.773275978975e+005 0.000000000000e+000 3.773279280342e+005 3.651067246539e+005 0.000000000000e+000 0.000000000000e+000 1.752527052079e+005 1.303472263415e+005 3.301278276404e+005 2.495522630971e+005 2.836798876766e+005 2.684244645416e+005 0.000000000000e+000 3.564175772193e+005 3.563774073972e+005 3.674381216777e+005 2.992276729811e+005 3.175405870432e+005 3.674670352791e+005 3.527030716156e+005 3.465625650254e+005 3.137247292407e+005 3.558932624275e+005 0.000000000000e+000 0.000000000000e+000 3.166296725721e+005 2.995623934125e+005 0.000000000000e+000 3.183175361673e+005 2.994252217631e+005 3.033633601116e+005 0.000000000000e+000 3.490044530723e+005 0.000000000000e+000 2.791043796920e+005 2.628143666835e+005 2.463781013265e+005 2.083494816913e+005 3.339560426661e+005 1.116115968001e+005 3.233989139790e+005 1.646811555596e+005 2.007364954061e+005 0.000000000000e+000 3.588707179270e+005 3.040217625265e+005 3.105028729945e+005 3.182027531432e+005 3.631734022808e+005 0.000000000000e+000 3.773234735551e+005 0.000000000000e+000 3.774721123652e+005 3.697072378854e+005 3.525196111070e+005 3.083306939431e+005 3.137265417356e+005 0.000000000000e+000 3.248945216260e+005 2.909449682125e+005 3.563920482520e+005 2.991745560673e+005 3.609919058587e+005 1.861753696805e+005 1.460355984755e+005 8.099038225893e+004 3.250321395194e+005 3.367517439716e+005 6.800391686725e+004 0.000000000000e+000 1.400428959900e+005 0.000000000000e+000 1.824471196812e+005 3.398676869264e+005 3.268090650265e+005 3.423195259501e+005 2.864712795556e+005 2.536216170432e+005 2.692505520163e+005 2.335632894638e+005 0.000000000000e+000 0.000000000000e+000 3.431159340250e+005 2.226521001529e+005 2.869584315561e+005 2.725839826353e+005 2.536816091765e+005 2.381713024368e+005 2.229417156349e+005 2.157067528148e+005 2.396489789088e+005 2.756220767756e+005 2.598073905413e+005 2.912973512265e+005 0.000000000000e+000 0.000000000000e+000 9.729507145911e+004 1.894315345334e+005 1.535420768160e+005 3.466473565494e+005 3.361139639223e+005 3.247044815417e+005 3.175734964881e+005 3.528442059357e+005 0.000000000000e+000 3.697049648712e+005 2.231068439283e+005 2.334297168932e+005 2.535241953112e+005 2.717489254856e+005 2.863771319142e+005 1.265246159575e+003 0.000000000000e+000 3.422301484814e+005 6.616131943405e+004 1.399187274716e+005 1.823039758614e+005 3.400493656968e+005 3.268699708607e+005 3.078200782963e+005 0.000000000000e+000 3.107852676596e+005 0.000000000000e+000 2.189378318854e+005 2.156337245393e+005 2.394788387069e+005 2.594362983826e+005 2.753608957832e+005 2.910227696215e+005 0.000000000000e+000 0.000000000000e+000 9.873740326566e+004 1.575052762407e+005 1.890289600534e+005 3.360336743679e+005 1.895374144293e+005 2.755002288786e+005 2.572562939364e+005 2.395127293206e+005 1.536801285216e+005 9.741302522931e+004 3.246603148944e+005 0.000000000000e+000 3.360855796019e+005 0.000000000000e+000 3.466513202612e+005 3.610488135368e+005 0.000000000000e+000 3.462970487292e+005 0.000000000000e+000 2.725129251689e+005 2.386823410160e+005 2.564392589009e+005 2.873195850287e+005 3.360077278002e+005 8.770156902114e+004 3.245172375717e+005 1.493949370549e+005 1.857610622358e+005 2.190802786687e+005 3.696223369742e+005 0.000000000000e+000 3.773292092304e+005 0.000000000000e+000 0.000000000000e+000 0.000000000000e+000 3.109345015577e+005 3.041547003963e+005 3.565241559890e+005 3.465970323761e+005 0.000000000000e+000 3.692194738193e+005 0.000000000000e+000 0.000000000000e+000 3.526508867718e+005 2.007886171268e+005 1.683344462874e+005 3.207593864569e+005 1.218638384667e+005 3.334150837584e+005 2.462900120073e+005 2.628269522041e+005 2.790615533961e+005 2.083304904233e+005 0.000000000000e+000 3.492143663883e+005 0.000000000000e+000 3.182113273362e+005 2.984119355346e+005 3.110504150913e+005 3.652337600716e+005 3.674296084493e+005 0.000000000000e+000 3.738363021038e+005 0.000000000000e+000 3.738382033324e+005 2.909061565015e+005 3.248809130604e+005 2.939240116585e+005 3.631107643990e+005 0.000000000000e+000 3.740370272963e+005 3.140256511752e+005 3.037102969827e+005 3.111471492028e+005 3.565397806439e+005 3.651384821486e+005 3.608788322036e+005 3.210698407404e+005 3.651406731294e+005 3.589003246055e+005 3.110660120278e+005 3.675329728187e+005 3.653154961885e+005 3.078628523303e+005 3.170295265486e+005 3.035500668147e+005 3.137843651844e+005 0.000000000000e+000 3.715485195520e+005 3.491103966125e+005 2.154504638410e+005 2.074380960016e+005 0.000000000000e+000 0.000000000000e+000 0.000000000000e+000 0.000000000000e+000 1.182567672877e+005 1.682848049758e+005 3.334206482260e+005 1.930390109913e+005 2.001122342986e+005 2.916103163419e+005 2.940469946803e+005 2.783528168168e+005 2.826636657098e+005 2.638203684638e+005 2.597692004297e+005 2.428615729708e+005 2.467716419540e+005 3.718098618034e+005 0.000000000000e+000 0.000000000000e+000 0.000000000000e+000 0.000000000000e+000 3.741561457115e+005 0.000000000000e+000 2.339131308134e+005 2.535458558183e+005 2.724291204372e+005 2.861586982369e+005 2.227966471432e+005 2.112396670325e+005 1.974053844856e+005 1.648285923061e+005 3.208796502528e+005 1.124374063279e+005 3.338999084591e+005 0.000000000000e+000 3.430855868775e+005 0.000000000000e+000 0.000000000000e+000 0.000000000000e+000 0.000000000000e+000 1.124602043412e+005 1.64827