<?xml version="1.0"?>
<VTKFile type="UnstructuredGrid" version="0.1" byte_order="LittleEndian">
  <UnstructuredGrid>
    <Piece NumberOfPoints="2604" NumberOfCells="4910">
      <Points>
        <DataArray type="Float64" NumberOfComponents="3" format="ascii">
          0.000000000000e+000 0.000000000000e+000 0.000000000000e+000
          2.000000000000e+002 0.000000000000e+000 0.000000000000e+000
          2.000000000000e+002 2.000000000000e+001 0.000000000000e+000
          0.000000000000e+000 2.000000000000e+001 0.000000000000e+000
          1.492537313427e+000 0.000000000000e+000 0.000000000000e+000
          2.985074626854e+000 0.000000000000e+000 0.000000000000e+000
          4.477611940281e+000 0.000000000000e+000 0.000000000000e+000
          5.970149253708e+000 0.000000000000e+000 0.000000000000e+000
          7.462686567135e+000 0.000000000000e+000 0.000000000000e+000
          8.955223880561e+000 0.000000000000e+000 0.000000000000e+000
          1.044776119399e+001 0.000000000000e+000 0.000000000000e+000
          1.194029850741e+001 0.000000000000e+000 0.000000000000e+000
          1.343283582084e+001 0.000000000000e+000 0.000000000000e+000
          1.492537313427e+001 0.000000000000e+000 0.000000000000e+000
          1.641791044770e+001 0.000000000000e+000 0.000000000000e+000
          1.791044776112e+001 0.000000000000e+000 0.000000000000e+000
          1.940298507455e+001 0.000000000000e+000 0.000000000000e+000
          2.089552238798e+001 0.000000000000e+000 0.000000000000e+000
          2.238805970141e+001 0.000000000000e+000 0.000000000000e+000
          2.388059701484e+001 0.000000000000e+000 0.000000000000e+000
          2.537313432826e+001 0.000000000000e+000 0.000000000000e+000
          2.686567164169e+001 0.000000000000e+000 0.000000000000e+000
          2.835820895511e+001 0.000000000000e+000 0.000000000000e+000
          2.985074626854e+001 0.000000000000e+000 0.000000000000e+000
          3.134328358196e+001 0.000000000000e+000 0.000000000000e+000
          3.283582089539e+001 0.000000000000e+000 0.000000000000e+000
          3.432835820881e+001 0.000000000000e+000 0.000000000000e+000
          3.582089552224e+001 0.000000000000e+000 0.000000000000e+000
          3.731343283566e+001 0.000000000000e+000 0.000000000000e+000
          3.880597014909e+001 0.000000000000e+000 0.000000000000e+000
          4.029850746251e+001 0.000000000000e+000 0.000000000000e+000
          4.179104477594e+001 0.000000000000e+000 0.000000000000e+000
          4.328358208936e+001 0.000000000000e+000 0.000000000000e+000
          4.477611940279e+001 0.000000000000e+000 0.000000000000e+000
          4.626865671621e+001 0.000000000000e+000 0.000000000000e+000
          4.776119402964e+001 0.000000000000e+000 0.000000000000e+000
          4.925373134306e+001 0.000000000000e+000 0.000000000000e+000
          5.074626865649e+001 0.000000000000e+000 0.000000000000e+000
          5.223880596991e+001 0.000000000000e+000 0.000000000000e+000
          5.373134328334e+001 0.000000000000e+000 0.000000000000e+000
          5.522388059676e+001 0.000000000000e+000 0.000000000000e+000
          5.671641791019e+001 0.000000000000e+000 0.000000000000e+000
          5.820895522361e+001 0.000000000000e+000 0.000000000000e+000
          5.970149253704e+001 0.000000000000e+000 0.000000000000e+000
          6.119402985046e+001 0.000000000000e+000 0.000000000000e+000
          6.268656716389e+001 0.000000000000e+000 0.000000000000e+000
          6.417910447732e+001 0.000000000000e+000 0.000000000000e+000
          6.567164179075e+001 0.000000000000e+000 0.000000000000e+000
          6.716417910418e+001 0.000000000000e+000 0.000000000000e+000
          6.865671641761e+001 0.000000000000e+000 0.000000000000e+000
          7.014925373104e+001 0.000000000000e+000 0.000000000000e+000
          7.164179104447e+001 0.000000000000e+000 0.000000000000e+000
          7.313432835790e+001 0.000000000000e+000 0.000000000000e+000
          7.462686567133e+001 0.000000000000e+000 0.000000000000e+000
          7.611940298476e+001 0.000000000000e+000 0.000000000000e+000
          7.761194029819e+001 0.000000000000e+000 0.000000000000e+000
          7.910447761162e+001 0.000000000000e+000 0.000000000000e+000
          8.059701492505e+001 0.000000000000e+000 0.000000000000e+000
          8.208955223848e+001 0.000000000000e+000 0.000000000000e+000
          8.358208955191e+001 0.000000000000e+000 0.000000000000e+000
          8.507462686534e+001 0.000000000000e+000 0.000000000000e+000
          8.656716417877e+001 0.000000000000e+000 0.000000000000e+000
          8.805970149220e+001 0.000000000000e+000 0.000000000000e+000
          8.955223880563e+001 0.000000000000e+000 0.000000000000e+000
          9.104477611907e+001 0.000000000000e+000 0.000000000000e+000
          9.253731343250e+001 0.000000000000e+000 0.000000000000e+000
          9.402985074593e+001 0.000000000000e+000 0.000000000000e+000
          9.552238805936e+001 0.000000000000e+000 0.000000000000e+000
          9.701492537279e+001 0.000000000000e+000 0.000000000000e+000
          9.850746268622e+001 0.000000000000e+000 0.000000000000e+000
          9.999999999965e+001 0.000000000000e+000 0.000000000000e+000
          1.014925373131e+002 0.000000000000e+000 0.000000000000e+000
          1.029850746265e+002 0.000000000000e+000 0.000000000000e+000
          1.044776119399e+002 0.000000000000e+000 0.000000000000e+000
          1.059701492534e+002 0.000000000000e+000 0.000000000000e+000
          1.074626865668e+002 0.000000000000e+000 0.000000000000e+000
          1.089552238802e+002 0.000000000000e+000 0.000000000000e+000
          1.104477611937e+002 0.000000000000e+000 0.000000000000e+000
          1.119402985071e+002 0.000000000000e+000 0.000000000000e+000
          1.134328358205e+002 0.000000000000e+000 0.000000000000e+000
          1.149253731340e+002 0.000000000000e+000 0.000000000000e+000
          1.164179104474e+002 0.000000000000e+000 0.000000000000e+000
          1.179104477608e+002 0.000000000000e+000 0.000000000000e+000
          1.194029850742e+002 0.000000000000e+000 0.000000000000e+000
          1.208955223877e+002 0.000000000000e+000 0.000000000000e+000
          1.223880597011e+002 0.000000000000e+000 0.000000000000e+000
          1.238805970145e+002 0.000000000000e+000 0.000000000000e+000
          1.253731343280e+002 0.000000000000e+000 0.000000000000e+000
          1.268656716414e+002 0.000000000000e+000 0.000000000000e+000
          1.283582089548e+002 0.000000000000e+000 0.000000000000e+000
          1.298507462683e+002 0.000000000000e+000 0.000000000000e+000
          1.313432835817e+002 0.000000000000e+000 0.000000000000e+000
          1.328358208952e+002 0.000000000000e+000 0.000000000000e+000
          1.343283582086e+002 0.000000000000e+000 0.000000000000e+000
          1.358208955220e+002 0.000000000000e+000 0.000000000000e+000
          1.373134328355e+002 0.000000000000e+000 0.000000000000e+000
          1.388059701489e+002 0.000000000000e+000 0.000000000000e+000
          1.402985074624e+002 0.000000000000e+000 0.000000000000e+000
          1.417910447758e+002 0.000000000000e+000 0.000000000000e+000
          1.432835820892e+002 0.000000000000e+000 0.000000000000e+000
          1.447761194027e+002 0.000000000000e+000 0.000000000000e+000
          1.462686567161e+002 0.000000000000e+000 0.000000000000e+000
          1.477611940296e+002 0.000000000000e+000 0.000000000000e+000
          1.492537313430e+002 0.000000000000e+000 0.000000000000e+000
          1.507462686564e+002 0.000000000000e+000 0.000000000000e+000
          1.522388059699e+002 0.000000000000e+000 0.000000000000e+000
          1.537313432833e+002 0.000000000000e+000 0.000000000000e+000
          1.552238805968e+002 0.000000000000e+000 0.000000000000e+000
          1.567164179102e+002 0.000000000000e+000 0.000000000000e+000
          1.582089552237e+002 0.000000000000e+000 0.000000000000e+000
          1.597014925371e+002 0.000000000000e+000 0.000000000000e+000
          1.611940298505e+002 0.000000000000e+000 0.000000000000e+000
          1.626865671640e+002 0.000000000000e+000 0.000000000000e+000
          1.641791044774e+002 0.000000000000e+000 0.000000000000e+000
          1.656716417909e+002 0.000000000000e+000 0.000000000000e+000
          1.671641791043e+002 0.000000000000e+000 0.000000000000e+000
          1.686567164177e+002 0.000000000000e+000 0.000000000000e+000
          1.701492537312e+002 0.000000000000e+000 0.000000000000e+000
          1.716417910446e+002 0.000000000000e+000 0.000000000000e+000
          1.731343283581e+002 0.000000000000e+000 0.000000000000e+000
          1.746268656715e+002 0.000000000000e+000 0.000000000000e+000
          1.761194029849e+002 0.000000000000e+000 0.000000000000e+000
          1.776119402984e+002 0.000000000000e+000 0.000000000000e+000
          1.791044776118e+002 0.000000000000e+000 0.000000000000e+000
          1.805970149253e+002 0.000000000000e+000 0.000000000000e+000
          1.820895522387e+002 0.000000000000e+000 0.000000000000e+000
          1.835820895521e+002 0.000000000000e+000 0.000000000000e+000
          1.850746268656e+002 0.000000000000e+000 0.000000000000e+000
          1.865671641790e+002 0.000000000000e+000 0.000000000000e+000
          1.880597014925e+002 0.000000000000e+000 0.000000000000e+000
          1.895522388059e+002 0.000000000000e+000 0.000000000000e+000
          1.910447761194e+002 0.000000000000e+000 0.000000000000e+000
          1.925373134328e+002 0.000000000000e+000 0.000000000000e+000
          1.940298507462e+002 0.000000000000e+000 0.000000000000e+000
          1.955223880597e+002 0.000000000000e+000 0.000000000000e+000
          1.970149253731e+002 0.000000000000e+000 0.000000000000e+000
          1.985074626866e+002 0.000000000000e+000 0.000000000000e+000
          2.000000000000e+002 1.428571428570e+000 0.000000000000e+000
          2.000000000000e+002 2.857142857140e+000 0.000000000000e+000
[...]
      <PointData Scalars="Capillary_Pressure">
        <DataArray type="Float64" Name="Capillary_Pressure" format="ascii">
          3.809390889914e+005 0.000000000000e+000 0.000000000000e+000 3.809422566427e+005 3.811756507412e+005 3.783897282849e+005 3.775252471959e+005 3.755671405474e+005 3.752938385184e+005 3.733747152374e+005 3.713275839923e+005 3.712542908515e+005 3.690663833054e+005 3.689078911532e+005 3.670429881249e+005 3.646468934459e+005 3.646861892391e+005 3.626599202196e+005 3.622661809328e+005 3.601486939047e+005 3.567216750715e+005 3.565452795437e+005 3.559939846083e+005 3.529677532042e+005 3.526594906118e+005 3.504683799237e+005 3.498691850813e+005 3.467098711747e+005 3.462409630835e+005 3.441767924961e+005 3.435757858182e+005 3.403601038561e+005 3.398671617577e+005 3.378981960063e+005 3.372036960916e+005 3.335779364532e+005 3.335541521188e+005 3.309511650221e+005 3.285580607373e+005 3.283291940704e+005 3.275848767262e+005 3.244097769209e+005 3.217777097573e+005 3.214346457281e+005 3.177926127015e+005 3.173635887099e+005 3.145332611067e+005 3.141167876881e+005 3.116986595934e+005 3.108362186952e+005 3.067526552491e+005 3.066226368176e+005 3.027710900523e+005 3.022778497426e+005 2.983106032486e+005 2.970131472261e+005 2.948546880262e+005 2.944603628773e+005 2.933892863670e+005 2.896132213245e+005 2.863992771025e+005 2.861128897129e+005 2.820907370308e+005 2.814244650556e+005 2.785539470550e+005 2.752037356233e+005 2.722218967973e+005 2.716835390201e+005 2.671262144837e+005 2.655980074129e+005 2.630155205291e+005 2.598988220911e+005 2.591352892654e+005 2.562952025922e+005 2.525864368610e+005 2.492798903697e+005 2.488259392671e+005 2.453194557842e+005 2.421105766360e+005 2.408888633111e+005 2.351665243294e+005 2.318115471218e+005 2.287432205571e+005 2.251536241184e+005 2.216668038083e+005 2.179656616882e+005 2.173234588366e+005 2.138562837334e+005 2.100124857884e+005 2.064968173387e+005 1.992551824820e+005 1.954263726188e+005 1.915406378098e+005 1.871892916005e+005 1.846067613734e+005 1.769966843622e+005 1.724907902079e+005 1.700703625626e+005 1.618583990888e+005 1.556078241342e+005 1.525814690734e+005 1.423253690230e+005 1.357379081703e+005 1.285864788494e+005 1.196827410942e+005 1.102955199796e+005 9.999291797387e+004 8.741158193907e+004 7.341368929231e+004 5.569297456341e+004 3.220778567122e+004 0.000000000000e+000 0.000000000000e+000 0.000000000000e+000 0.000000000000e+000 0.000000000000e+000 0.000000000000e+000 0.000000000000e+000 0.000000000000e+000 0.000000000000e+000 0.000000000000e+000 0.000000000000e+000 0.000000000000e+000 0.000000000000e+000 0.000000000000e+000 0.000000000000e+000 0.000000000000e+000 0.000000000000e+000 0.000000000000e+000 0.000000000000e+000 0.000000000000e+000 0.000000000000e+000 0.000000000000e+000 0.000000000000e+000 0.000000000000e+000 0.000000000000e+000 0.000000000000e+000 0.000000000000e+000 0.000000000000e+000 0.000000000000e+000 0.000000000000e+000 0.000000000000e+000 0.000000000000e+000 0.000000000000e+000 0.000000000000e+000 0.000000000000e+000 0.000000000000e+000 0.000000000000e+000 0.000000000000e+000 0.000000000000e+000 0.000000000000e+000 0.000000000000e+000 0.000000000000e+000 0.000000000000e+000 0.000000000000e+000 0.000000000000e+000 0.000000000000e+000 0.000000000000e+000 0.000000000000e+000 0.000000000000e+000 0.000000000000e+000 0.000000000000e+000 0.000000000000e+000 0.000000000000e+000 0.000000000000e+000 0.000000000000e+000 0.000000000000e+000 0.000000000000e+000 0.000000000000e+000 0.000000000000e+000 0.000000000000e+000 0.000000000000e+000 0.000000000000e+000 0.000000000000e+000 0.000000000000e+000 0.000000000000e+000 3.218927316623e+004 5.566469025909e+004 7.340416253131e+004 8.739716411926e+004 9.999655871943e+004 1.103183799245e+005 1.196713942500e+005 1.285847352256e+005 1.357305443970e+005 1.423145460162e+005 1.525796772899e+005 1.555992831596e+005 1.618384534677e+005 1.700627573731e+005 1.724852188079e+005 1.770081766596e+005 1.845945234274e+005 1.871861969870e+005 1.915288618484e+005 1.954062531939e+005 1.992527168889e+005 2.064924055346e+005 2.100187316036e+005 2.138616668876e+005 2.173186166555e+005 2.179733236105e+005 2.216721631489e+005 2.251720392319e+005 2.287373545540e+005 2.318214066265e+005 2.351367338598e+005 2.408797518795e+005 2.421000247969e+005 2.453320317356e+005 2.488102529509e+005 2.492692234895e+005 2.525768340859e+005 2.562810940708e+005 2.591504108616e+005 2.624460983281e+005 2.630189017093e+005 2.655852947162e+005 2.670971350882e+005 2.716965322554e+005 2.748406959580e+005 2.752026735474e+005 2.784803965352e+005 2.814387403781e+005 2.821024728782e+005 2.861033165674e+005 2.864082981759e+005 2.896478198238e+005 2.933876019807e+005 2.944615076296e+005 2.948763283760e+005 2.970251210539e+005 3.013776592026e+005 3.022963525580e+005 3.027682930584e+005 3.066374247599e+005 3.067989002029e+005 3.108209344344e+005 3.116660257264e+005 3.141092511548e+005 3.145212675178e+005 3.173388719241e+005 3.206112556674e+005 3.214353754686e+005 3.217530851311e+005 3.244130656705e+005 3.275787069124e+005 3.283358875552e+005 3.285465385028e+005 3.309482388966e+005 3.335578391182e+005 3.335734599926e+005 3.372036489622e+005 3.378936587670e+005 3.398651976559e+005 3.403625257524e+005 3.435736409116e+005 3.441755617985e+005 3.462403506459e+005 3.467022833057e+005 3.498730974723e+005 3.504618181457e+005 3.526574491536e+005 3.529728557318e+005 3.559959437612e+005 3.565433133735e+005 3.567270622993e+005 3.601382724524e+005 3.622621715826e+005 3.626574973507e+005 3.646951431631e+005 3.646355685106e+005 3.669813160902e+005 3.670374864587e+005 3.690778081346e+005 3.712585575948e+005 3.713108455307e+005 3.733856668857e+005 3.752990310900e+005 3.755792326273e+005 3.774849929980e+005 3.783944140141e+005 3.811746795607e+005 3.809435641316e+005 3.809413741236e+005 3.809434945678e+005 3.809430091841e+005 3.809382484798e+005 3.809411086034e+005 3.809422246907e+005 3.809386995466e+005 3.809401447626e+005 3.809446223802e+005 3.809402767293e+005 3.809406161093e+005 3.809404282634e+005 0.000000000000e+000 3.733625574876e+005 0.000000000000e+000 0.000000000000e+000 4.622149755376e+004 1.325520616821e+005 1.770790716879e+005 3.563459898521e+005 2.060746013625e+005 3.441970834749e+005 3.338019229239e+005 3.216892048556e+005 3.019632908471e+005 2.867050254492e+005 2.711962169207e+005 2.522501218760e+005 2.322104958954e+005 3.648737546973e+005 3.116837799511e+005 2.179531768236e+005 2.210229777322e+005 2.420877071892e+005 2.624796190697e+005 2.784586613125e+005 2.944678937016e+005 0.000000000000e+000 0.000000000000e+000 9.875313887965e+004 2.944604525563e+005 2.786662405782e+005 2.623075397764e+005 2.417062177254e+005 1.554235134223e+005 1.915048233264e+005 3.504763016479e+005 3.399310569109e+005 3.282685010948e+005 1.914791740382e+005 1.555847276866e+005 9.997444315040e+004 0.000000000000e+000 0.000000000000e+000 3.283558928356e+005 3.398695331308e+005 3.504557048485e+005 0.000000000000e+000 0.000000000000e+000 3.146289335390e+005 3.071393291811e+005 3.688964424107e+005 3.601370290823e+005 0.000000000000e+000 3.755725914576e+005 0.000000000000e+000 3.755838316518e+005 3.686613222880e+005 3.601791396497e+005 3.174820005216e+005 3.064008251630e+005 0.000000000000e+000 2.322152595988e+005 0.000000000000e+000 2.522453037526e+005 2.711889749787e+005 2.866897981124e+005 3.016000772431e+005 2.061158707279e+005 4.444462133730e+004 1.316533820596e+005 1.770525421550e+005 3.442260178810e+005 3.338599103358e+005 2.070651778374e+005 1.771990797714e+005 1.324774595328e+005 4.504737826450e+004 2.867063631852e+005 2.711790376093e+005 2.522692796660e+005 0.000000000000e+000 2.321805773252e+005 0.000000000000e+000 3.217514506934e+005 3.338121836587e+005 3.442200154446e+005 3.563511649863e+005 0.000000000000e+000 0.000000000000e+000 3.713119830660e+005 3.559899216127e+005 2.981475366310e+005 3.239433562539e+005 0.000000000000e+000 3.775431377025e+005 3.648602841041e+005 3.733254314904e+005 3.648803652805e+005 3.116751764374e+005 3.171606182391e+005 3.068632304647e+005 3.690760582155e+005 3.601189394106e+005 3.116614541194e+005 0.000000000000e+000 8.945156571300e+004 0.000000000000e+000 1.526886647893e+005 0.000000000000e+000 1.876216490118e+005 2.410398876210e+005 2.754211569368e+005 2.904958197007e+005 2.592819371688e+005 3.498862807684e+005 3.285012004023e+005 3.398654317586e+005 2.215598968616e+005 3.117035394839e+005 0.000000000000e+000 3.783805381557e+005 0.000000000000e+000 3.783781524905e+005 2.365110970466e+005 2.563099259277e+005 2.754148436638e+005 2.900297370046e+005 1.993335187647e+005 2.250484536773e+005 2.138735785962e+005 1.665823224079e+005 3.245943186053e+005 1.139317645948e+005 3.376994587938e+005 0.000000000000e+000 3.469801332338e+005 0.000000000000e+000 0.000000000000e+000 0.000000000000e+000 0.000000000000e+000 0.000000000000e+000 1.147569903731e+005 8.309971260785e+004 1.667149699400e+005 1.492347789807e+005 3.469230598254e+005 1.880857428191e+005 1.993485244890e+005 3.376580206201e+005 3.405226029332e+005 2.899936530628e+005 2.754033948838e+005 2.562803880428e+005 2.817387641693e+005 2.633445320140e+005 2.405181256504e+005 2.449241353225e+005 3.286020714935e+005 2.138655428587e+005 2.248168832284e+005 0.000000000000e+000 3.528209115443e+005 0.000000000000e+000 3.404566248018e+005 8.519645717147e+004 3.286855979959e+005 1.486108293386e+005 2.972617455195e+005 2.818755453925e+005 2.634817521157e+005 2.481462904195e+005 1.882555688469e+005 3.648537720232e+005 0.000000000000e+000 0.000000000000e+000 3.062545987144e+005 3.200755721726e+005 3.599656041861e+005 2.139707503789e+005 2.633464854924e+005 2.448446426272e+005 2.816794807697e+005 2.972458029121e+005 3.527941059705e+005 3.377383414650e+005 0.000000000000e+000 3.246031907029e+005 0.000000000000e+000 1.154456740695e+005 1.992350267422e+005 1.627217164987e+005 3.526615782892e+005 0.000000000000e+000 0.000000000000e+000 3.103689699500e+005 3.690687030338e+005 0.000000000000e+000 2.137326010071e+005 2.027263341518e+005 1.701750519711e+005 3.242361533793e+005 1.204590894226e+005 3.371542349611e+005 2.821453862204e+005 2.656128402992e+005 2.489006371520e+005 0.000000000000e+000 3.529682487279e+005 0.000000000000e+000 3.624381499409e+005 2.974705303118e+005 0.000000000000e+000 0.000000000000e+000 0.000000000000e+000 2.947597630874e+005 3.276463992642e+005 3.027082771969e+005 3.207232722329e+005 3.753114615858e+005 3.566831611768e+005 3.712207327237e+005 3.669392293194e+005 3.566805294857e+005 2.351475285779e+005 2.562918412463e+005 2.748706275168e+005 2.896532293955e+005 0.000000000000e+000 3.467108457546e+005 0.000000000000e+000 2.252256132603e+005 1.846319881864e+005 2.548513409659e+002 1.422108783803e+005 0.000000000000e+000 7.336168453192e+004 2.357247040716e+005 2.563226570730e+005 2.748248886149e+005 2.896110809125e+005 3.466380587058e+005 3.309151947811e+005 3.435871649488e+005 3.435828175958e+005 7.249749581016e+004 3.304817123553e+005 1.422305496566e+005 1.845388214236e+005 2.251966050850e+005 0.000000000000e+000 0.000000000000e+000 3.783799228051e+005 3.783895593830e+005 0.000000000000e+000 3.748621236021e+005 0.000000000000e+000 0.000000000000e+000 3.734200280294e+005 0.000000000000e+000 3.712301618928e+005 3.748698998452e+005 3.209184496333e+005 3.021229039785e+005 3.561250859182e+005 3.711394731162e+005 3.214901950169e+005 3.625451262693e+005 3.626903004455e+005 3.021978107241e+005 3.668267453909e+005 3.170888859641e+005 3.104884477785e+005 3.669802403889e+005 3.374770085726e+005 1.988550674700e+005 1.659411974031e+005 1.176080846597e+005 0.000000000000e+000 0.000000000000e+000 2.141331668174e+005 2.974977074532e+005 2.815232740055e+005 2.661284804002e+005 2.485617788080e+005 3.144890374582e+005 3.626240923074e+005 3.073503656453e+005 3.140311490122e+005 0.000000000000e+000 0.000000000000e+000 3.525249396236e+005 3.270882716920e+005 3.734479242214e+005 3.755299634585e+005 0.000000000000e+000 3.668803963780e+005 2.322632689692e+005 2.552152728319e+005 2.717282702244e+005 2.864230493561e+005 2.065258866087e+005 2.068511404745e+005 2.286336811364e+005 1.724282878648e+005 1.299763884545e+005 3.217839503837e+005 3.054041986479e+004 3.339429338150e+005 0.000000000000e+000 3.462640839759e+005 0.000000000000e+000 0.000000000000e+000 3.013142616406e+004 1.299148941005e+005 1.735969058638e+005 3.462820160426e+005 3.339492833408e+005 2.864033671984e+005 2.717480084393e+005 2.552384357197e+005 0.000000000000e+000 3.559796989615e+005 2.982408740938e+005 0.000000000000e+000 0.000000000000e+000 0.000000000000e+000 3.531504699762e+005 3.567909634380e+005 3.712173319750e+005 3.107654369538e+005 0.000000000000e+000 0.000000000000e+000 1.051591730143e+005 1.590506450247e+005 1.957312486683e+005 3.505244889061e+005 3.378093675104e+005 3.279213219370e+005 2.420857942026e+005 2.786555323228e+005 2.948534976076e+005 2.630272001560e+005 2.176824627355e+005 0.000000000000e+000 0.000000000000e+000 0.000000000000e+000 0.000000000000e+000 1.330202983312e+005 1.769460864562e+005 3.338908584280e+005 2.865601949254e+005 2.708999531846e+005 2.520613337589e+005 3.777669813730e+005 3.141894427314e+005 2.068274216745e+005 2.064521658051e+005 3.016131851182e+005 0.000000000000e+000 3.810203655917e+005 3.242473548776e+005 2.971916344370e+005 1.915578685750e+005 1.556604650123e+005 1.000258854307e+005 0.000000000000e+000 0.000000000000e+000 3.283146003949e+005 3.398467432521e+005 3.504658240688e+005 2.624419402659e+005 2.421079796940e+005 2.944632799208e+005 2.785449754271e+005 0.000000000000e+000 0.000000000000e+000 2.785174017144e+005 2.624216320289e+005 9.997934155594e+004 2.421123912689e+005 1.556122242397e+005 1.914865600731e+005 3.398662114246e+005 2.179214484058e+005 2.179801028796e+005 3.624140299978e+005 3.179039644129e+005 3.646503071717e+005 2.951882830707e+005 3.115114316887e+005 0.000000000000e+000 0.000000000000e+000 3.066226661479e+005 3.031401754586e+005 3.111627324278e+005 2.022610531247e+005 2.327540581156e+005 2.288020506760e+005 2.095339363995e+005 2.485715180878e+005 2.667264814506e+005 2.857235530513e+005 1.797961450634e+005 3.439895694060e+005 3.332372898311e+005 0.000000000000e+000 6.398690699033e+004 1.388998029887e+005 0.000000000000e+000 3.439856236477e+005 6.405064736896e+004 3.332302725614e+005 2.857125141157e+005 2.666993181839e+005 2.489539034257e+005 1.389069113259e+005 1.798103534124e+005 3.778592775093e+005 3.710922735310e+005 0.000000000000e+000 3.778540950277e+005 2.321859232268e+005 2.322532290155e+005 3.442286169791e+005 3.442398898658e+005 4.394615297658e+004 4.445732482279e+004 0.000000000000e+000 3.667787230232e+005 3.733573871016e+005 3.559669378217e+005 3.648957305962e+005 0.000000000000e+000 3.810190660182e+005 0.000000000000e+000 3.810185633796e+005 3.689116308620e+005 0.000000000000e+000 0.000000000000e+000 1.772285441376e+005 1.324990529712e+005 3.338197025258e+005 2.521303897048e+005 2.867373321615e+005 2.712332105772e+005 0.000000000000e+000 3.602414116153e+005 3.601987344685e+005 3.712296448016e+005 3.025390377987e+005 3.210676237050e+005 3.712557394998e+005 3.565393770242e+005 3.503699962758e+005 3.172173235746e+005 3.597030448910e+005 0.000000000000e+000 0.000000000000e+000 3.201266413799e+005 3.029084811075e+005 0.000000000000e+000 3.219017121268e+005 3.027674902812e+005 3.067121321338e+005 0.000000000000e+000 3.528182110896e+005 0.000000000000e+000 2.821349017559e+005 2.656150568486e+005 2.488916558459e+005 2.105110429461e+005 3.376779591654e+005 1.139984524449e+005 3.269846235201e+005 1.666394168050e+005 2.028049286171e+005 0.000000000000e+000 3.626877136002e+005 3.074326545467e+005 3.139496153055e+005 3.217662944174e+005 3.669971430198e+005 0.000000000000e+000 3.810165951614e+005 0.000000000000e+000 3.811620183393e+005 3.734858305401e+005 3.563329720936e+005 3.117709631626e+005 3.172128228973e+005 0.000000000000e+000 3.285359615521e+005 2.940945952219e+005 3.602126685057e+005 3.024782534827e+005 3.647940774707e+005 1.881684210755e+005 1.480807641597e+005 8.405944028110e+004 3.287176620203e+005 3.405322093388e+005 7.151784411060e+004 0.000000000000e+000 1.421240887740e+005 2.486177164038e+003 1.844258580372e+005 3.436236374957e+005 3.305031890687e+005 3.461367486816e+005 2.895728389086e+005 2.562358020270e+005 2.721418751021e+005 2.359426521077e+005 0.000000000000e+000 0.000000000000e+000 3.469384543407e+005 2.249055029942e+005 2.901038190460e+005 2.754929001159e+005 2.563778310961e+005 2.405405095663e+005 2.252630800144e+005 2.179547766721e+005 2.421012192655e+005 2.785626863866e+005 2.624892539275e+005 2.944650983753e+005 0.000000000000e+000 0.000000000000e+000 9.993944666916e+004 1.914906576309e+005 1.555683270365e+005 3.504589230091e+005 3.398608169593e+005 3.283325233515e+005 3.211074858074e+005 3.566827023403e+005 0.000000000000e+000 3.734816191999e+005 2.254230785822e+005 2.358102223531e+005 2.561357442508e+005 2.746012520462e+005 2.894709491628e+005 8.102139526534e+003 0.000000000000e+000 3.460440801366e+005 6.974904559823e+004 1.419934492558e+005 1.842796014918e+005 3.438088400409e+005 3.305613879978e+005 3.112889261413e+005 0.000000000000e+000 3.142329896142e+005 0.000000000000e+000 2.211500256695e+005 2.178715053187e+005 2.419176233614e+005 2.621191550596e+005 2.783020339941e+005 2.941750658227e+005 0.000000000000e+000 0.000000000000e+000 1.013600441311e+005 1.594753375369e+005 1.910761372083e+005 3.397696371479e+005 1.916117067413e+005 2.784371536441e+005 2.600045798602e+005 2.419570414064e+005 1.557078858363e+005 1.000664342484e+005 3.282810848167e+005 0.000000000000e+000 3.398266575673e+005 0.000000000000e+000 3.504636669470e+005 3.648688452633e+005 0.000000000000e+000 3.500911997550e+005 0.000000000000e+000 2.754380643796e+005 2.410955516220e+005 2.591140740221e+005 2.905010225057e+005 3.397734393119e+005 9.058196528856e+004 3.281913731165e+005 1.514253028426e+005 1.878101860694e+005 2.213429612610e+005 3.733951208683e+005 0.000000000000e+000 3.810208373973e+005 0.000000000000e+000 0.000000000000e+000 0.000000000000e+000 3.143878650416e+005 3.075760576581e+005 3.603498513126e+005 3.504056360084e+005 0.000000000000e+000 3.729973308699e+005 0.000000000000e+000 0.000000000000e+000 3.564719874963e+005 2.028620345180e+005 1.702995017968e+005 3.243464476187e+005 1.240718132386e+005 3.371100175594e+005 2.488003195870e+005 2.656231297238e+005 2.820829386446e+005 2.105022419076e+005 0.000000000000e+000 3.530484482782e+005 0.000000000000e+000 3.217778652707e+005 3.016771270864e+005 3.145555208798e+005 3.690370515514e+005 3.712193780586e+005 0.000000000000e+000 3.775694787641e+005 0.000000000000e+000 3.775714488323e+005 2.940532750995e+005 3.285210482134e+005 2.971897981173e+005 3.669213470285e+005 0.000000000000e+000 3.777691387399e+005 3.175402006512e+005 3.070779232837e+005 3.146553538036e+005 3.603701092322e+005 3.689388650565e+005 3.647032753935e+005 3.247020938952e+005 3.689431394962e+005 3.627211734684e+005 3.145289433904e+005 3.713271297310e+005 3.691225671954e+005 3.112706969894e+005 3.205315943657e+005 3.069094346666e+005 3.172809277925e+005 0.000000000000e+000 3.753048254206e+005 3.529300107987e+005 2.176370637289e+005 2.096032275098e+005 0.000000000000e+000 0.000000000000e+000 0.000000000000e+000 0.000000000000e+000 1.205503846443e+005 1.702479780629e+005 3.371200557230e+005 1.951029235615e+005 2.022178891759e+005 2.948299309520e+005 2.973148416047e+005 2.813355431196e+005 2.856710375469e+005 2.666301267332e+005 2.625360696394e+005 2.453350995940e+005 2.493111536417e+005 3.755668737061e+005 0.000000000000e+000 0.000000000000e+000 0.000000000000e+000 0.000000000000e+000 3.778860581788e+005 0.000000000000e+000 2.363334942208e+005 2.562193817312e+005 2.753230746282e+005 2.893146525468e+005 2.250608974983e+005 2.134237612028e+005 1.994700625446e+005 1.667918028944e+005 3.244937446932e+005 1.148123758318e+005 3.376193566366e+005 0.000000000000e+000 3.469071300444e+005 0.000000000000e+000 0.000000000000e+000 0.000000000000e+000 0.000000000000e+000 1.148344555542e+005 1.66790