<?xml version="1.0"?>
<VTKFile type="UnstructuredGrid" version="0.1" byte_order="LittleEndian">
  <UnstructuredGrid>
    <Piece NumberOfPoints="2604" NumberOfCells="4910">
      <Points>
        <DataArray type="Float64" NumberOfComponents="3" format="ascii">
          0.000000000000e+000 0.000000000000e+000 0.000000000000e+000
          2.000000000000e+002 0.000000000000e+000 0.000000000000e+000
          2.000000000000e+002 2.000000000000e+001 0.000000000000e+000
          0.000000000000e+000 2.000000000000e+001 0.000000000000e+000
          1.492537313427e+000 0.000000000000e+000 0.000000000000e+000
          2.985074626854e+000 0.000000000000e+000 0.000000000000e+000
          4.477611940281e+000 0.000000000000e+000 0.000000000000e+000
          5.970149253708e+000 0.000000000000e+000 0.000000000000e+000
          7.462686567135e+000 0.000000000000e+000 0.000000000000e+000
          8.955223880561e+000 0.000000000000e+000 0.000000000000e+000
          1.044776119399e+001 0.000000000000e+000 0.000000000000e+000
          1.194029850741e+001 0.000000000000e+000 0.000000000000e+000
          1.343283582084e+001 0.000000000000e+000 0.000000000000e+000
          1.492537313427e+001 0.000000000000e+000 0.000000000000e+000
          1.641791044770e+001 0.000000000000e+000 0.000000000000e+000
          1.791044776112e+001 0.000000000000e+000 0.000000000000e+000
          1.940298507455e+001 0.000000000000e+000 0.000000000000e+000
          2.089552238798e+001 0.000000000000e+000 0.000000000000e+000
          2.238805970141e+001 0.000000000000e+000 0.000000000000e+000
          2.388059701484e+001 0.000000000000e+000 0.000000000000e+000
          2.537313432826e+001 0.000000000000e+000 0.000000000000e+000
          2.686567164169e+001 0.000000000000e+000 0.000000000000e+000
          2.835820895511e+001 0.000000000000e+000 0.000000000000e+000
          2.985074626854e+001 0.000000000000e+000 0.000000000000e+000
          3.134328358196e+001 0.000000000000e+000 0.000000000000e+000
          3.283582089539e+001 0.000000000000e+000 0.000000000000e+000
          3.432835820881e+001 0.000000000000e+000 0.000000000000e+000
          3.582089552224e+001 0.000000000000e+000 0.000000000000e+000
          3.731343283566e+001 0.000000000000e+000 0.000000000000e+000
          3.880597014909e+001 0.000000000000e+000 0.000000000000e+000
          4.029850746251e+001 0.000000000000e+000 0.000000000000e+000
          4.179104477594e+001 0.000000000000e+000 0.000000000000e+000
          4.328358208936e+001 0.000000000000e+000 0.000000000000e+000
          4.477611940279e+001 0.000000000000e+000 0.000000000000e+000
          4.626865671621e+001 0.000000000000e+000 0.000000000000e+000
          4.776119402964e+001 0.000000000000e+000 0.000000000000e+000
          4.925373134306e+001 0.000000000000e+000 0.000000000000e+000
          5.074626865649e+001 0.000000000000e+000 0.000000000000e+000
          5.223880596991e+001 0.000000000000e+000 0.000000000000e+000
          5.373134328334e+001 0.000000000000e+000 0.000000000000e+000
          5.522388059676e+001 0.000000000000e+000 0.000000000000e+000
          5.671641791019e+001 0.000000000000e+000 0.000000000000e+000
          5.820895522361e+001 0.000000000000e+000 0.000000000000e+000
          5.970149253704e+001 0.000000000000e+000 0.000000000000e+000
          6.119402985046e+001 0.000000000000e+000 0.000000000000e+000
          6.268656716389e+001 0.000000000000e+000 0.000000000000e+000
          6.417910447732e+001 0.000000000000e+000 0.000000000000e+000
          6.567164179075e+001 0.000000000000e+000 0.000000000000e+000
          6.716417910418e+001 0.000000000000e+000 0.000000000000e+000
          6.865671641761e+001 0.000000000000e+000 0.000000000000e+000
          7.014925373104e+001 0.000000000000e+000 0.000000000000e+000
          7.164179104447e+001 0.000000000000e+000 0.000000000000e+000
          7.313432835790e+001 0.000000000000e+000 0.000000000000e+000
          7.462686567133e+001 0.000000000000e+000 0.000000000000e+000
          7.611940298476e+001 0.000000000000e+000 0.000000000000e+000
          7.761194029819e+001 0.000000000000e+000 0.000000000000e+000
          7.910447761162e+001 0.000000000000e+000 0.000000000000e+000
          8.059701492505e+001 0.000000000000e+000 0.000000000000e+000
          8.208955223848e+001 0.000000000000e+000 0.000000000000e+000
          8.358208955191e+001 0.000000000000e+000 0.000000000000e+000
          8.507462686534e+001 0.000000000000e+000 0.000000000000e+000
          8.656716417877e+001 0.000000000000e+000 0.000000000000e+000
          8.805970149220e+001 0.000000000000e+000 0.000000000000e+000
          8.955223880563e+001 0.000000000000e+000 0.000000000000e+000
          9.104477611907e+001 0.000000000000e+000 0.000000000000e+000
          9.253731343250e+001 0.000000000000e+000 0.000000000000e+000
          9.402985074593e+001 0.000000000000e+000 0.000000000000e+000
          9.552238805936e+001 0.000000000000e+000 0.000000000000e+000
          9.701492537279e+001 0.000000000000e+000 0.000000000000e+000
          9.850746268622e+001 0.000000000000e+000 0.000000000000e+000
          9.999999999965e+001 0.000000000000e+000 0.000000000000e+000
          1.014925373131e+002 0.000000000000e+000 0.000000000000e+000
          1.029850746265e+002 0.000000000000e+000 0.000000000000e+000
          1.044776119399e+002 0.000000000000e+000 0.000000000000e+000
          1.059701492534e+002 0.000000000000e+000 0.000000000000e+000
          1.074626865668e+002 0.000000000000e+000 0.000000000000e+000
          1.089552238802e+002 0.000000000000e+000 0.000000000000e+000
          1.104477611937e+002 0.000000000000e+000 0.000000000000e+000
          1.119402985071e+002 0.000000000000e+000 0.000000000000e+000
          1.134328358205e+002 0.000000000000e+000 0.000000000000e+000
          1.149253731340e+002 0.000000000000e+000 0.000000000000e+000
          1.164179104474e+002 0.000000000000e+000 0.000000000000e+000
          1.179104477608e+002 0.000000000000e+000 0.000000000000e+000
          1.194029850742e+002 0.000000000000e+000 0.000000000000e+000
          1.208955223877e+002 0.000000000000e+000 0.000000000000e+000
          1.223880597011e+002 0.000000000000e+000 0.000000000000e+000
          1.238805970145e+002 0.000000000000e+000 0.000000000000e+000
          1.253731343280e+002 0.000000000000e+000 0.000000000000e+000
          1.268656716414e+002 0.000000000000e+000 0.000000000000e+000
          1.283582089548e+002 0.000000000000e+000 0.000000000000e+000
          1.298507462683e+002 0.000000000000e+000 0.000000000000e+000
          1.313432835817e+002 0.000000000000e+000 0.000000000000e+000
          1.328358208952e+002 0.000000000000e+000 0.000000000000e+000
          1.343283582086e+002 0.000000000000e+000 0.000000000000e+000
          1.358208955220e+002 0.000000000000e+000 0.000000000000e+000
          1.373134328355e+002 0.000000000000e+000 0.000000000000e+000
          1.388059701489e+002 0.000000000000e+000 0.000000000000e+000
          1.402985074624e+002 0.000000000000e+000 0.000000000000e+000
          1.417910447758e+002 0.000000000000e+000 0.000000000000e+000
          1.432835820892e+002 0.000000000000e+000 0.000000000000e+000
          1.447761194027e+002 0.000000000000e+000 0.000000000000e+000
          1.462686567161e+002 0.000000000000e+000 0.000000000000e+000
          1.477611940296e+002 0.000000000000e+000 0.000000000000e+000
          1.492537313430e+002 0.000000000000e+000 0.000000000000e+000
          1.507462686564e+002 0.000000000000e+000 0.000000000000e+000
          1.522388059699e+002 0.000000000000e+000 0.000000000000e+000
          1.537313432833e+002 0.000000000000e+000 0.000000000000e+000
          1.552238805968e+002 0.000000000000e+000 0.000000000000e+000
          1.567164179102e+002 0.000000000000e+000 0.000000000000e+000
          1.582089552237e+002 0.000000000000e+000 0.000000000000e+000
          1.597014925371e+002 0.000000000000e+000 0.000000000000e+000
          1.611940298505e+002 0.000000000000e+000 0.000000000000e+000
          1.626865671640e+002 0.000000000000e+000 0.000000000000e+000
          1.641791044774e+002 0.000000000000e+000 0.000000000000e+000
          1.656716417909e+002 0.000000000000e+000 0.000000000000e+000
          1.671641791043e+002 0.000000000000e+000 0.000000000000e+000
          1.686567164177e+002 0.000000000000e+000 0.000000000000e+000
          1.701492537312e+002 0.000000000000e+000 0.000000000000e+000
          1.716417910446e+002 0.000000000000e+000 0.000000000000e+000
          1.731343283581e+002 0.000000000000e+000 0.000000000000e+000
          1.746268656715e+002 0.000000000000e+000 0.000000000000e+000
          1.761194029849e+002 0.000000000000e+000 0.000000000000e+000
          1.776119402984e+002 0.000000000000e+000 0.000000000000e+000
          1.791044776118e+002 0.000000000000e+000 0.000000000000e+000
          1.805970149253e+002 0.000000000000e+000 0.000000000000e+000
          1.820895522387e+002 0.000000000000e+000 0.000000000000e+000
          1.835820895521e+002 0.000000000000e+000 0.000000000000e+000
          1.850746268656e+002 0.000000000000e+000 0.000000000000e+000
          1.865671641790e+002 0.000000000000e+000 0.000000000000e+000
          1.880597014925e+002 0.000000000000e+000 0.000000000000e+000
          1.895522388059e+002 0.000000000000e+000 0.000000000000e+000
          1.910447761194e+002 0.000000000000e+000 0.000000000000e+000
          1.925373134328e+002 0.000000000000e+000 0.000000000000e+000
          1.940298507462e+002 0.000000000000e+000 0.000000000000e+000
          1.955223880597e+002 0.000000000000e+000 0.000000000000e+000
          1.970149253731e+002 0.000000000000e+000 0.000000000000e+000
          1.985074626866e+002 0.000000000000e+000 0.000000000000e+000
          2.000000000000e+002 1.428571428570e+000 0.000000000000e+000
          2.000000000000e+002 2.857142857140e+000 0.000000000000e+000
[...]
      <PointData Scalars="Capillary_Pressure">
        <DataArray type="Float64" Name="Capillary_Pressure" format="ascii">
          3.468908176298e+005 0.000000000000e+000 0.000000000000e+000 3.468975260059e+005 3.471834472979e+005 3.439911055610e+005 3.430750224314e+005 3.408894894233e+005 3.406109916870e+005 3.384771714606e+005 3.362377051798e+005 3.361872141717e+005 3.338153635487e+005 3.337609234116e+005 3.317314564708e+005 3.291104955042e+005 3.292681597420e+005 3.271169847905e+005 3.268201539397e+005 3.245445007448e+005 3.207865998572e+005 3.207942708106e+005 3.203473708872e+005 3.170769295630e+005 3.169462535847e+005 3.146499934717e+005 3.142072416396e+005 3.108130949443e+005 3.105482112918e+005 3.084291453400e+005 3.080519706430e+005 3.045896458973e+005 3.043478102048e+005 3.023722304367e+005 3.019449908260e+005 2.980084293585e+005 2.983826775873e+005 2.957463940134e+005 2.932801350745e+005 2.934380935511e+005 2.930040505365e+005 2.896713249768e+005 2.871151127244e+005 2.870719789778e+005 2.832504064949e+005 2.832165721186e+005 2.803543925868e+005 2.803818881120e+005 2.780365822223e+005 2.774763794843e+005 2.732962440901e+005 2.736099688055e+005 2.695950380582e+005 2.695740787879e+005 2.654676761579e+005 2.645048641700e+005 2.625354665908e+005 2.626562554966e+005 2.619955440415e+005 2.581888965925e+005 2.549432895425e+005 2.552695235448e+005 2.512110550043e+005 2.509959423064e+005 2.483054891774e+005 2.449931474935e+005 2.421854508189e+005 2.422359604667e+005 2.374942032232e+005 2.364536393283e+005 2.340954679143e+005 2.311009718460e+005 2.310065000309e+005 2.283571395297e+005 2.247379295428e+005 2.215304269499e+005 2.217925695702e+005 2.184379359471e+005 2.154300160954e+005 2.148400090549e+005 2.087350421881e+005 2.056752958536e+005 2.028474570022e+005 1.993873489608e+005 1.961061267589e+005 1.925065240807e+005 1.926242285950e+005 1.893622962176e+005 1.856497454839e+005 1.823062943431e+005 1.745259708666e+005 1.708164838054e+005 1.670246789426e+005 1.627205608121e+005 1.605032761646e+005 1.521358981147e+005 1.475447691502e+005 1.455822488043e+005 1.362893618143e+005 1.293844466820e+005 1.266036166461e+005 1.142279682118e+005 1.065359798215e+005 9.786557876950e+004 8.631983340586e+004 7.342737243037e+004 5.811819607556e+004 3.684611666071e+004 9.889968540180e+003 0.000000000000e+000 0.000000000000e+000 0.000000000000e+000 0.000000000000e+000 0.000000000000e+000 0.000000000000e+000 0.000000000000e+000 0.000000000000e+000 0.000000000000e+000 0.000000000000e+000 0.000000000000e+000 0.000000000000e+000 0.000000000000e+000 0.000000000000e+000 0.000000000000e+000 0.000000000000e+000 0.000000000000e+000 0.000000000000e+000 0.000000000000e+000 0.000000000000e+000 0.000000000000e+000 0.000000000000e+000 0.000000000000e+000 0.000000000000e+000 0.000000000000e+000 0.000000000000e+000 0.000000000000e+000 0.000000000000e+000 0.000000000000e+000 0.000000000000e+000 0.000000000000e+000 0.000000000000e+000 0.000000000000e+000 0.000000000000e+000 0.000000000000e+000 0.000000000000e+000 0.000000000000e+000 0.000000000000e+000 0.000000000000e+000 0.000000000000e+000 0.000000000000e+000 0.000000000000e+000 0.000000000000e+000 0.000000000000e+000 0.000000000000e+000 0.000000000000e+000 0.000000000000e+000 0.000000000000e+000 0.000000000000e+000 0.000000000000e+000 0.000000000000e+000 0.000000000000e+000 0.000000000000e+000 0.000000000000e+000 0.000000000000e+000 0.000000000000e+000 0.000000000000e+000 0.000000000000e+000 0.000000000000e+000 0.000000000000e+000 0.000000000000e+000 0.000000000000e+000 0.000000000000e+000 0.000000000000e+000 0.000000000000e+000 0.000000000000e+000 0.000000000000e+000 0.000000000000e+000 0.000000000000e+000 9.874361677902e+003 3.685690243815e+004 5.813469191493e+004 7.347153332152e+004 8.631013814743e+004 9.786898728160e+004 1.065408981870e+005 1.142112154765e+005 1.265962346156e+005 1.293821673959e+005 1.362679435880e+005 1.455568792354e+005 1.475379071399e+005 1.521333210047e+005 1.604861459878e+005 1.626887774121e+005 1.670131416409e+005 1.707762539318e+005 1.744974488993e+005 1.823568721598e+005 1.856282347303e+005 1.893292332091e+005 1.926083782458e+005 1.925026054563e+005 1.960977950890e+005 1.994219770777e+005 2.028752515719e+005 2.056709060379e+005 2.087303119537e+005 2.148054903762e+005 2.154290985970e+005 2.184776359133e+005 2.217899368614e+005 2.215106339647e+005 2.247309681867e+005 2.283530213784e+005 2.310265326030e+005 2.341389662112e+005 2.340847681478e+005 2.364591222114e+005 2.374477132002e+005 2.422522069286e+005 2.452520400766e+005 2.450656560770e+005 2.481960886570e+005 2.510120489151e+005 2.512263042607e+005 2.552677804754e+005 2.549555399851e+005 2.582488818972e+005 2.619907279518e+005 2.626627428054e+005 2.625761661513e+005 2.645171783687e+005 2.690883741645e+005 2.695901060756e+005 2.695783450895e+005 2.736272310387e+005 2.733156025400e+005 2.774764438695e+005 2.780073910651e+005 2.803505855503e+005 2.802941078743e+005 2.831821772208e+005 2.865922858088e+005 2.870614167768e+005 2.870281877144e+005 2.896876226409e+005 2.929627146512e+005 2.934577869813e+005 2.932644718694e+005 2.957034282944e+005 2.984031040396e+005 2.980045688091e+005 3.019517284657e+005 3.023596388398e+005 3.043428333542e+005 3.045841291240e+005 3.080582194732e+005 3.084255808311e+005 3.105497359342e+005 3.107948735313e+005 3.142233713544e+005 3.146355477245e+005 3.169325723040e+005 3.170850020526e+005 3.203509797037e+005 3.207773599937e+005 3.207802281106e+005 3.245386512084e+005 3.268115876913e+005 3.271017903231e+005 3.292680398779e+005 3.291604552613e+005 3.315742314830e+005 3.315901197754e+005 3.337874891529e+005 3.362273808343e+005 3.361743575475e+005 3.385090350939e+005 3.406075661063e+005 3.408916690457e+005 3.430340214932e+005 3.440067797932e+005 3.471775122240e+005 3.468992782460e+005 3.468993583015e+005 3.468954278287e+005 3.468967774333e+005 3.468937657153e+005 3.468940605319e+005 3.468932777718e+005 3.468894091740e+005 3.468940198696e+005 3.468994369752e+005 3.468903541571e+005 3.468959344962e+005 3.468949224741e+005 0.000000000000e+000 3.385016452513e+005 0.000000000000e+000 0.000000000000e+000 0.000000000000e+000 1.026912051727e+005 1.526859988353e+005 3.206535095778e+005 1.813929383257e+005 3.083229126847e+005 2.985226088156e+005 2.871842864161e+005 2.694472700280e+005 2.556746850456e+005 2.420128244553e+005 2.247571353505e+005 2.064894992211e+005 3.294123370441e+005 2.780001657384e+005 1.925164428194e+005 1.961074196367e+005 2.154082517359e+005 2.342399294575e+005 2.481744318580e+005 2.626668568379e+005 0.000000000000e+000 0.000000000000e+000 5.615455952491e+004 2.626587393403e+005 2.483200229698e+005 2.340551185646e+005 2.147970634432e+005 1.292699951116e+005 1.669720986548e+005 3.146464548004e+005 3.043771833068e+005 2.934059480613e+005 1.670600125398e+005 1.293711469848e+005 5.808955289644e+004 0.000000000000e+000 0.000000000000e+000 2.934835775166e+005 3.043468365102e+005 3.146428130712e+005 0.000000000000e+000 0.000000000000e+000 2.803613571051e+005 2.738257746993e+005 3.337019382528e+005 3.244767497515e+005 0.000000000000e+000 3.408746390601e+005 0.000000000000e+000 3.408981557017e+005 3.334170877268e+005 3.245474382967e+005 2.832635847972e+005 2.734317164623e+005 0.000000000000e+000 2.065352225337e+005 0.000000000000e+000 2.247294318290e+005 2.420291508867e+005 2.556866673870e+005 2.691721440730e+005 1.814034235810e+005 0.000000000000e+000 1.016334902001e+005 1.528215759118e+005 3.083251331704e+005 2.985306096836e+005 1.825390091737e+005 1.528706198359e+005 1.026734853542e+005 0.000000000000e+000 2.556860865135e+005 2.420233698054e+005 2.247414533021e+005 0.000000000000e+000 2.064547702964e+005 0.000000000000e+000 2.872164859677e+005 2.984878689791e+005 3.083129136871e+005 3.206692554967e+005 0.000000000000e+000 0.000000000000e+000 3.361837483623e+005 3.203654352546e+005 2.653782707597e+005 2.894529463234e+005 0.000000000000e+000 3.431028545538e+005 3.294073449463e+005 3.384611036446e+005 3.294363898133e+005 2.776400176849e+005 2.832333723334e+005 2.737226045779e+005 3.338518396555e+005 3.245081645519e+005 2.780093016766e+005 0.000000000000e+000 4.064418627401e+004 0.000000000000e+000 1.266193057001e+005 0.000000000000e+000 1.630726696575e+005 2.148349823744e+005 2.452968329561e+005 2.585033894440e+005 2.311545660593e+005 3.142264345293e+005 2.932465519342e+005 3.040577907251e+005 1.960553617259e+005 2.780455693247e+005 0.000000000000e+000 3.439851733079e+005 0.000000000000e+000 3.439898433531e+005 2.099047731303e+005 2.278069055577e+005 2.454909722340e+005 2.582865956951e+005 1.751961089699e+005 1.997420926708e+005 1.887882704941e+005 1.418764154228e+005 2.896438277654e+005 7.853783802603e+004 3.022774557071e+005 0.000000000000e+000 3.109562750097e+005 0.000000000000e+000 0.000000000000e+000 0.000000000000e+000 0.000000000000e+000 0.000000000000e+000 7.969439430310e+004 2.883528485636e+004 1.419512631275e+005 1.225875688808e+005 3.109364601007e+005 1.641057421374e+005 1.751991251787e+005 3.022604313581e+005 3.046584433070e+005 2.581943770936e+005 2.454962060892e+005 2.278851274667e+005 2.511651722080e+005 2.342464820821e+005 2.146613623648e+005 2.176456859375e+005 2.933082332932e+005 1.888532084248e+005 1.996426162198e+005 0.000000000000e+000 3.170456803943e+005 0.000000000000e+000 3.046198042090e+005 3.288934910135e+004 2.933540082805e+005 1.216564854048e+005 2.650492862220e+005 2.512519161672e+005 2.343176787237e+005 2.214234343462e+005 1.642133258739e+005 3.293671828434e+005 0.000000000000e+000 0.000000000000e+000 2.733654814626e+005 2.862029173899e+005 3.244311784234e+005 1.888663329250e+005 2.342452406353e+005 2.175788042157e+005 2.511042732244e+005 2.650441651036e+005 3.170274943190e+005 3.022692451742e+005 0.000000000000e+000 2.896037687717e+005 0.000000000000e+000 8.102261120694e+004 1.751469962049e+005 1.370843693690e+005 3.169232586362e+005 0.000000000000e+000 0.000000000000e+000 2.772877932307e+005 3.338189625187e+005 0.000000000000e+000 1.892507686412e+005 1.786243033849e+005 1.456279954172e+005 2.895512693190e+005 8.736711265692e+004 3.018886449106e+005 2.512046265223e+005 2.363832991872e+005 2.218532603304e+005 0.000000000000e+000 3.170747498400e+005 0.000000000000e+000 3.269255946576e+005 2.650896000409e+005 0.000000000000e+000 0.000000000000e+000 0.000000000000e+000 2.625053049396e+005 2.929338468294e+005 2.695958405428e+005 2.865958036099e+005 3.406392650005e+005 3.207742175117e+005 3.361755518038e+005 3.315565844333e+005 3.207528447345e+005 2.086912546968e+005 2.283428373114e+005 2.452896099559e+005 2.582064622164e+005 0.000000000000e+000 3.107908157430e+005 0.000000000000e+000 1.994336311240e+005 1.605283039550e+005 0.000000000000e+000 1.141467194170e+005 0.000000000000e+000 9.887569275910e+003 2.094451772288e+005 2.283904736847e+005 2.452628043621e+005 2.582111125525e+005 3.107084634368e+005 2.956955412020e+005 3.080454713053e+005 3.080407280562e+005 8.047918933921e+003 2.951431597411e+005 1.141540360012e+005 1.604797764001e+005 1.994421937140e+005 0.000000000000e+000 0.000000000000e+000 3.439919090312e+005 3.440135411335e+005 0.000000000000e+000 3.401140195149e+005 0.000000000000e+000 0.000000000000e+000 3.385196074463e+005 0.000000000000e+000 3.361417021144e+005 3.401185426445e+005 2.867789604497e+005 2.690601640128e+005 3.201927683122e+005 3.360710458612e+005 2.870851906342e+005 3.269922319657e+005 3.271254073055e+005 2.695545305576e+005 3.314720888860e+005 2.831338999939e+005 2.773211058317e+005 3.316071508117e+005 3.021771345644e+005 1.743109391044e+005 1.406269199011e+005 8.357369041622e+004 0.000000000000e+000 0.000000000000e+000 1.894422151949e+005 2.651728209003e+005 2.506757339243e+005 2.372385348185e+005 2.216738085366e+005 2.805606795191e+005 3.270797521237e+005 2.737605348558e+005 2.798783934979e+005 0.000000000000e+000 0.000000000000e+000 3.166317942052e+005 2.926989987664e+005 3.385376561955e+005 3.408237754519e+005 0.000000000000e+000 3.315181290141e+005 2.061018190424e+005 2.277727429470e+005 2.422354975502e+005 2.549214330322e+005 1.823170010186e+005 1.819526316860e+005 2.027290536024e+005 1.475184908297e+005 9.989824014329e+004 2.870762451970e+005 0.000000000000e+000 2.984338548346e+005 0.000000000000e+000 3.105749642576e+005 0.000000000000e+000 0.000000000000e+000 0.000000000000e+000 9.984705297179e+004 1.489943433534e+005 3.106032146844e+005 2.984375078919e+005 2.549246307558e+005 2.422600560743e+005 2.278160740715e+005 0.000000000000e+000 3.203441868820e+005 2.654246326713e+005 0.000000000000e+000 0.000000000000e+000 0.000000000000e+000 3.171507841022e+005 3.208725642982e+005 3.361263962565e+005 2.774694945745e+005 0.000000000000e+000 0.000000000000e+000 6.585162191633e+004 1.331844772946e+005 1.715175489740e+005 3.145896050164e+005 3.021490989724e+005 2.931910724209e+005 2.149896338630e+005 2.481292378656e+005 2.628115798295e+005 2.343771105497e+005 1.927155254629e+005 0.000000000000e+000 0.000000000000e+000 0.000000000000e+000 0.000000000000e+000 1.036354079303e+005 1.527468419124e+005 2.985479384806e+005 2.556648856199e+005 2.418233271195e+005 2.246412816330e+005 3.433589006386e+005 2.804929682953e+005 1.824774462294e+005 1.816403684363e+005 2.691845720054e+005 0.000000000000e+000 3.470159613436e+005 2.895908718308e+005 2.645996200356e+005 1.670833904728e+005 1.294086332663e+005 5.807938773893e+004 0.000000000000e+000 0.000000000000e+000 2.934489122817e+005 3.043211084478e+005 3.146417957796e+005 2.341396831273e+005 2.154346581642e+005 2.626677347365e+005 2.482716849170e+005 0.000000000000e+000 0.000000000000e+000 2.482183735405e+005 2.341014649264e+005 5.807437242862e+004 2.154371929636e+005 1.293875538918e+005 1.670328534922e+005 3.043266669710e+005 1.924801888721e+005 1.924959113142e+005 3.268022283366e+005 2.833572857761e+005 3.292499006349e+005 2.627244592176e+005 2.779504004823e+005 0.000000000000e+000 0.000000000000e+000 2.735597257613e+005 2.698146017272e+005 2.777415597603e+005 1.776291399437e+005 2.064379755620e+005 2.032102319309e+005 1.846624991917e+005 2.210203826574e+005 2.373754454483e+005 2.550818843170e+005 1.551883068258e+005 3.083470693485e+005 2.981814911683e+005 0.000000000000e+000 0.000000000000e+000 1.103039980768e+005 0.000000000000e+000 3.083406106536e+005 0.000000000000e+000 2.981617202911e+005 2.550361847733e+005 2.373194895847e+005 2.213654042881e+005 1.103252845123e+005 1.552024269885e+005 3.434502548402e+005 3.360361762611e+005 0.000000000000e+000 3.434603415292e+005 2.065501523724e+005 2.065147165627e+005 3.083152289653e+005 3.083428730843e+005 0.000000000000e+000 0.000000000000e+000 0.000000000000e+000 3.314453590373e+005 3.384709338412e+005 3.203440408905e+005 3.294664286538e+005 0.000000000000e+000 3.470072326060e+005 0.000000000000e+000 3.470118796543e+005 3.336712644494e+005 0.000000000000e+000 0.000000000000e+000 1.528826498149e+005 1.026703793326e+005 2.985349032556e+005 2.245556009889e+005 2.556896088555e+005 2.420375177482e+005 0.000000000000e+000 3.245725752220e+005 3.245731649868e+005 3.361554672817e+005 2.696642037439e+005 2.868307684351e+005 3.362002938650e+005 3.206849041215e+005 3.145881185358e+005 2.831702326354e+005 3.241666811752e+005 0.000000000000e+000 0.000000000000e+000 2.861720658410e+005 2.697123125497e+005 0.000000000000e+000 2.871654531068e+005 2.696185407310e+005 2.736355318249e+005 0.000000000000e+000 3.170465688241e+005 0.000000000000e+000 2.511944200434e+005 2.363702822770e+005 2.218448319876e+005 1.855669199908e+005 3.022609576848e+005 7.858470089709e+004 2.924819565561e+005 1.419083469000e+005 1.786327292679e+005 0.000000000000e+000 3.271394438079e+005 2.738113803489e+005 2.802357331424e+005 2.872350884401e+005 3.315480237571e+005 0.000000000000e+000 3.469930429553e+005 0.000000000000e+000 3.471661154746e+005 3.385658381739e+005 3.206584086342e+005 2.780346182817e+005 2.832131356144e+005 0.000000000000e+000 2.935464532495e+005 2.624294619164e+005 3.245810075563e+005 2.696671831708e+005 3.293915374377e+005 1.641307864027e+005 1.210302303954e+005 3.072302767006e+004 2.933404268494e+005 3.046914279300e+005 6.295084500159e+003 0.000000000000e+000 1.141064048109e+005 0.000000000000e+000 1.604077660333e+005 3.080759219060e+005 2.951251811859e+005 3.101482269225e+005 2.582009565230e+005 2.283993685249e+005 2.421795078957e+005 2.097999501125e+005 0.000000000000e+000 0.000000000000e+000 3.109166343240e+005 1.996675417875e+005 2.583235482244e+005 2.455174151519e+005 2.278510651727e+005 2.146452749199e+005 1.993865098650e+005 1.924887613485e+005 2.154368269158e+005 2.483326046584e+005 2.342218133561e+005 2.626583039681e+005 0.000000000000e+000 0.000000000000e+000 5.801967856555e+004 1.670012151026e+005 1.293480851454e+005 3.146467828826e+005 3.043054091775e+005 2.934441090577e+005 2.868412263709e+005 3.207985988827e+005 0.000000000000e+000 3.385825756618e+005 1.995396486467e+005 2.096736327887e+005 2.283259263043e+005 2.451140385104e+005 2.581575701933e+005 0.000000000000e+000 0.000000000000e+000 3.100801166411e+005 2.944839939028e+003 1.140378412809e+005 1.602901185543e+005 3.082491456007e+005 2.951840580409e+005 2.773053909722e+005 0.000000000000e+000 2.804740021562e+005 0.000000000000e+000 1.961972998595e+005 1.924858355233e+005 2.153698640073e+005 2.339287830776e+005 2.481251942742e+005 2.624689797261e+005 0.000000000000e+000 0.000000000000e+000 6.011082278925e+004 1.341431394572e+005 1.666100757093e+005 3.042950876571e+005 1.669793292900e+005 2.482557408517e+005 2.310886599470e+005 2.153694518014e+005 1.294230674986e+005 5.809555758256e+004 2.934528768807e+005 0.000000000000e+000 3.043108587920e+005 0.000000000000e+000 3.146418842382e+005 3.293908203427e+005 0.000000000000e+000 3.144189063355e+005 0.000000000000e+000 2.452167644139e+005 2.148534189936e+005 2.308346566804e+005 2.584325845724e+005 3.040137861357e+005 4.240957231710e+004 2.929207342186e+005 1.248093764477e+005 1.632183500725e+005 1.959035090123e+005 3.385210511212e+005 0.000000000000e+000 3.470023724407e+005 0.000000000000e+000 0.000000000000e+000 0.000000000000e+000 2.805767335085e+005 2.738733357728e+005 3.246939349312e+005 3.146118143380e+005 0.000000000000e+000 3.380695009577e+005 0.000000000000e+000 0.000000000000e+000 3.207445010246e+005 1.786785991993e+005 1.456997869657e+005 2.896711354512e+005 9.255479653487e+004 3.019059898021e+005 2.217908250316e+005 2.363960003848e+005 2.512008595308e+005 1.855133597276e+005 0.000000000000e+000 3.171123592311e+005 0.000000000000e+000 2.872108528444e+005 2.692043719434e+005 2.803318617789e+005 3.338065594499e+005 3.361422002652e+005 0.000000000000e+000 3.431256791651e+005 0.000000000000e+000 3.431221509828e+005 2.624028123608e+005 2.935450552294e+005 2.645660046403e+005 3.315483342932e+005 0.000000000000e+000 3.433487871832e+005 2.833210536019e+005 2.738301493686e+005 2.804008432797e+005 3.246601173206e+005 3.337330649412e+005 3.292047883504e+005 2.896579187871e+005 3.337189086862e+005 3.271620754759e+005 2.806124256667e+005 3.362155938312e+005 3.338475584237e+005 2.778161253687e+005 2.864928109499e+005 2.737377178025e+005 2.832134462354e+005 0.000000000000e+000 3.406162847059e+005 3.171117748702e+005 1.927911771247e+005 1.847134141048e+005 0.000000000000e+000 0.000000000000e+000 0.000000000000e+000 0.000000000000e+000 8.741953057059e+004 1.456555966286e+005 3.018813814786e+005 1.706443223820e+005 1.776187080806e+005 2.625393626082e+005 2.646592336851e+005 2.508943684440e+005 2.550726680915e+005 2.372974045199e+005 2.334949053028e+005 2.185436948576e+005 2.220092789878e+005 3.408730307967e+005 0.000000000000e+000 0.000000000000e+000 0.000000000000e+000 0.000000000000e+000 3.434795316005e+005 0.000000000000e+000 2.097970481084e+005 2.278491592515e+005 2.454661830622e+005 2.574539589392e+005 1.997091231201e+005 1.884181044237e+005 1.752137071229e+005 1.419927859993e+005 2.895979120688e+005 7.969267243755e+004 3.022188253608e+005 0.000000000000e+000 3.108933065912e+005 0.000000000000e+000 0.000000000000e+000 0.000000000000e+000 0.000000000000e+000 7.973449881758e+004 1.41996