<?xml version="1.0"?>
<VTKFile type="UnstructuredGrid" version="0.1" byte_order="LittleEndian">
  <UnstructuredGrid>
    <Piece NumberOfPoints="2604" NumberOfCells="4910">
      <Points>
        <DataArray type="Float64" NumberOfComponents="3" format="ascii">
          0.000000000000e+000 0.000000000000e+000 0.000000000000e+000
          2.000000000000e+002 0.000000000000e+000 0.000000000000e+000
          2.000000000000e+002 2.000000000000e+001 0.000000000000e+000
          0.000000000000e+000 2.000000000000e+001 0.000000000000e+000
          1.492537313427e+000 0.000000000000e+000 0.000000000000e+000
          2.985074626854e+000 0.000000000000e+000 0.000000000000e+000
          4.477611940281e+000 0.000000000000e+000 0.000000000000e+000
          5.970149253708e+000 0.000000000000e+000 0.000000000000e+000
          7.462686567135e+000 0.000000000000e+000 0.000000000000e+000
          8.955223880561e+000 0.000000000000e+000 0.000000000000e+000
          1.044776119399e+001 0.000000000000e+000 0.000000000000e+000
          1.194029850741e+001 0.000000000000e+000 0.000000000000e+000
          1.343283582084e+001 0.000000000000e+000 0.000000000000e+000
          1.492537313427e+001 0.000000000000e+000 0.000000000000e+000
          1.641791044770e+001 0.000000000000e+000 0.000000000000e+000
          1.791044776112e+001 0.000000000000e+000 0.000000000000e+000
          1.940298507455e+001 0.000000000000e+000 0.000000000000e+000
          2.089552238798e+001 0.000000000000e+000 0.000000000000e+000
          2.238805970141e+001 0.000000000000e+000 0.000000000000e+000
          2.388059701484e+001 0.000000000000e+000 0.000000000000e+000
          2.537313432826e+001 0.000000000000e+000 0.000000000000e+000
          2.686567164169e+001 0.000000000000e+000 0.000000000000e+000
          2.835820895511e+001 0.000000000000e+000 0.000000000000e+000
          2.985074626854e+001 0.000000000000e+000 0.000000000000e+000
          3.134328358196e+001 0.000000000000e+000 0.000000000000e+000
          3.283582089539e+001 0.000000000000e+000 0.000000000000e+000
          3.432835820881e+001 0.000000000000e+000 0.000000000000e+000
          3.582089552224e+001 0.000000000000e+000 0.000000000000e+000
          3.731343283566e+001 0.000000000000e+000 0.000000000000e+000
          3.880597014909e+001 0.000000000000e+000 0.000000000000e+000
          4.029850746251e+001 0.000000000000e+000 0.000000000000e+000
          4.179104477594e+001 0.000000000000e+000 0.000000000000e+000
          4.328358208936e+001 0.000000000000e+000 0.000000000000e+000
          4.477611940279e+001 0.000000000000e+000 0.000000000000e+000
          4.626865671621e+001 0.000000000000e+000 0.000000000000e+000
          4.776119402964e+001 0.000000000000e+000 0.000000000000e+000
          4.925373134306e+001 0.000000000000e+000 0.000000000000e+000
          5.074626865649e+001 0.000000000000e+000 0.000000000000e+000
          5.223880596991e+001 0.000000000000e+000 0.000000000000e+000
          5.373134328334e+001 0.000000000000e+000 0.000000000000e+000
          5.522388059676e+001 0.000000000000e+000 0.000000000000e+000
          5.671641791019e+001 0.000000000000e+000 0.000000000000e+000
          5.820895522361e+001 0.000000000000e+000 0.000000000000e+000
          5.970149253704e+001 0.000000000000e+000 0.000000000000e+000
          6.119402985046e+001 0.000000000000e+000 0.000000000000e+000
          6.268656716389e+001 0.000000000000e+000 0.000000000000e+000
          6.417910447732e+001 0.000000000000e+000 0.000000000000e+000
          6.567164179075e+001 0.000000000000e+000 0.000000000000e+000
          6.716417910418e+001 0.000000000000e+000 0.000000000000e+000
          6.865671641761e+001 0.000000000000e+000 0.000000000000e+000
          7.014925373104e+001 0.000000000000e+000 0.000000000000e+000
          7.164179104447e+001 0.000000000000e+000 0.000000000000e+000
          7.313432835790e+001 0.000000000000e+000 0.000000000000e+000
          7.462686567133e+001 0.000000000000e+000 0.000000000000e+000
          7.611940298476e+001 0.000000000000e+000 0.000000000000e+000
          7.761194029819e+001 0.000000000000e+000 0.000000000000e+000
          7.910447761162e+001 0.000000000000e+000 0.000000000000e+000
          8.059701492505e+001 0.000000000000e+000 0.000000000000e+000
          8.208955223848e+001 0.000000000000e+000 0.000000000000e+000
          8.358208955191e+001 0.000000000000e+000 0.000000000000e+000
          8.507462686534e+001 0.000000000000e+000 0.000000000000e+000
          8.656716417877e+001 0.000000000000e+000 0.000000000000e+000
          8.805970149220e+001 0.000000000000e+000 0.000000000000e+000
          8.955223880563e+001 0.000000000000e+000 0.000000000000e+000
          9.104477611907e+001 0.000000000000e+000 0.000000000000e+000
          9.253731343250e+001 0.000000000000e+000 0.000000000000e+000
          9.402985074593e+001 0.000000000000e+000 0.000000000000e+000
          9.552238805936e+001 0.000000000000e+000 0.000000000000e+000
          9.701492537279e+001 0.000000000000e+000 0.000000000000e+000
          9.850746268622e+001 0.000000000000e+000 0.000000000000e+000
          9.999999999965e+001 0.000000000000e+000 0.000000000000e+000
          1.014925373131e+002 0.000000000000e+000 0.000000000000e+000
          1.029850746265e+002 0.000000000000e+000 0.000000000000e+000
          1.044776119399e+002 0.000000000000e+000 0.000000000000e+000
          1.059701492534e+002 0.000000000000e+000 0.000000000000e+000
          1.074626865668e+002 0.000000000000e+000 0.000000000000e+000
          1.089552238802e+002 0.000000000000e+000 0.000000000000e+000
          1.104477611937e+002 0.000000000000e+000 0.000000000000e+000
          1.119402985071e+002 0.000000000000e+000 0.000000000000e+000
          1.134328358205e+002 0.000000000000e+000 0.000000000000e+000
          1.149253731340e+002 0.000000000000e+000 0.000000000000e+000
          1.164179104474e+002 0.000000000000e+000 0.000000000000e+000
          1.179104477608e+002 0.000000000000e+000 0.000000000000e+000
          1.194029850742e+002 0.000000000000e+000 0.000000000000e+000
          1.208955223877e+002 0.000000000000e+000 0.000000000000e+000
          1.223880597011e+002 0.000000000000e+000 0.000000000000e+000
          1.238805970145e+002 0.000000000000e+000 0.000000000000e+000
          1.253731343280e+002 0.000000000000e+000 0.000000000000e+000
          1.268656716414e+002 0.000000000000e+000 0.000000000000e+000
          1.283582089548e+002 0.000000000000e+000 0.000000000000e+000
          1.298507462683e+002 0.000000000000e+000 0.000000000000e+000
          1.313432835817e+002 0.000000000000e+000 0.000000000000e+000
          1.328358208952e+002 0.000000000000e+000 0.000000000000e+000
          1.343283582086e+002 0.000000000000e+000 0.000000000000e+000
          1.358208955220e+002 0.000000000000e+000 0.000000000000e+000
          1.373134328355e+002 0.000000000000e+000 0.000000000000e+000
          1.388059701489e+002 0.000000000000e+000 0.000000000000e+000
          1.402985074624e+002 0.000000000000e+000 0.000000000000e+000
          1.417910447758e+002 0.000000000000e+000 0.000000000000e+000
          1.432835820892e+002 0.000000000000e+000 0.000000000000e+000
          1.447761194027e+002 0.000000000000e+000 0.000000000000e+000
          1.462686567161e+002 0.000000000000e+000 0.000000000000e+000
          1.477611940296e+002 0.000000000000e+000 0.000000000000e+000
          1.492537313430e+002 0.000000000000e+000 0.000000000000e+000
          1.507462686564e+002 0.000000000000e+000 0.000000000000e+000
          1.522388059699e+002 0.000000000000e+000 0.000000000000e+000
          1.537313432833e+002 0.000000000000e+000 0.000000000000e+000
          1.552238805968e+002 0.000000000000e+000 0.000000000000e+000
          1.567164179102e+002 0.000000000000e+000 0.000000000000e+000
          1.582089552237e+002 0.000000000000e+000 0.000000000000e+000
          1.597014925371e+002 0.000000000000e+000 0.000000000000e+000
          1.611940298505e+002 0.000000000000e+000 0.000000000000e+000
          1.626865671640e+002 0.000000000000e+000 0.000000000000e+000
          1.641791044774e+002 0.000000000000e+000 0.000000000000e+000
          1.656716417909e+002 0.000000000000e+000 0.000000000000e+000
          1.671641791043e+002 0.000000000000e+000 0.000000000000e+000
          1.686567164177e+002 0.000000000000e+000 0.000000000000e+000
          1.701492537312e+002 0.000000000000e+000 0.000000000000e+000
          1.716417910446e+002 0.000000000000e+000 0.000000000000e+000
          1.731343283581e+002 0.000000000000e+000 0.000000000000e+000
          1.746268656715e+002 0.000000000000e+000 0.000000000000e+000
          1.761194029849e+002 0.000000000000e+000 0.000000000000e+000
          1.776119402984e+002 0.000000000000e+000 0.000000000000e+000
          1.791044776118e+002 0.000000000000e+000 0.000000000000e+000
          1.805970149253e+002 0.000000000000e+000 0.000000000000e+000
          1.820895522387e+002 0.000000000000e+000 0.000000000000e+000
          1.835820895521e+002 0.000000000000e+000 0.000000000000e+000
          1.850746268656e+002 0.000000000000e+000 0.000000000000e+000
          1.865671641790e+002 0.000000000000e+000 0.000000000000e+000
          1.880597014925e+002 0.000000000000e+000 0.000000000000e+000
          1.895522388059e+002 0.000000000000e+000 0.000000000000e+000
          1.910447761194e+002 0.000000000000e+000 0.000000000000e+000
          1.925373134328e+002 0.000000000000e+000 0.000000000000e+000
          1.940298507462e+002 0.000000000000e+000 0.000000000000e+000
          1.955223880597e+002 0.000000000000e+000 0.000000000000e+000
          1.970149253731e+002 0.000000000000e+000 0.000000000000e+000
          1.985074626866e+002 0.000000000000e+000 0.000000000000e+000
          2.000000000000e+002 1.428571428570e+000 0.000000000000e+000
          2.000000000000e+002 2.857142857140e+000 0.000000000000e+000
[...]
      <PointData Scalars="Capillary_Pressure">
        <DataArray type="Float64" Name="Capillary_Pressure" format="ascii">
          3.852525132390e+005 0.000000000000e+000 0.000000000000e+000 3.852548649130e+005 3.854811903633e+005 3.827435352968e+005 3.818816745410e+005 3.799479977831e+005 3.796750616943e+005 3.777779625671e+005 3.757487820729e+005 3.756728853507e+005 3.735020938634e+005 3.733340409584e+005 3.714619315470e+005 3.690883903726e+005 3.691276119350e+005 3.671095505620e+005 3.667017963087e+005 3.645963993064e+005 3.611986632807e+005 3.609958296237e+005 3.604311389372e+005 3.574238719460e+005 3.570904949300e+005 3.549040821651e+005 3.542812661716e+005 3.511380914630e+005 3.506401350652e+005 3.485742082825e+005 3.479396783296e+005 3.447386296559e+005 3.442153095116e+005 3.422375877751e+005 3.415044766886e+005 3.379017038544e+005 3.378229457526e+005 3.352137157139e+005 3.328213469219e+005 3.325402661674e+005 3.317495896806e+005 3.285870143495e+005 3.259193376325e+005 3.255487444268e+005 3.218907925207e+005 3.214237677622e+005 3.185920516571e+005 3.181096101413e+005 3.156713838885e+005 3.147673407542e+005 3.106790340047e+005 3.104936825240e+005 3.066381007148e+005 3.060846779455e+005 3.021200338427e+005 3.007624471769e+005 2.985769768367e+005 2.981174042299e+005 2.969928410672e+005 2.932019833476e+005 2.899797635065e+005 2.896147387008e+005 2.855686669900e+005 2.848666288164e+005 2.819479989311e+005 2.785728919706e+005 2.755625569363e+005 2.749494165267e+005 2.703975371431e+005 2.688015168215e+005 2.661894374032e+005 2.630402939748e+005 2.621895073825e+005 2.593142945653e+005 2.555812067722e+005 2.522519178969e+005 2.517123737892e+005 2.481702836383e+005 2.449288250920e+005 2.436222367846e+005 2.379167488219e+005 2.345338992783e+005 2.314015623077e+005 2.277958588549e+005 2.242647568012e+005 2.205367277106e+005 2.198140096095e+005 2.163036684105e+005 2.124211703858e+005 2.088816532627e+005 2.016567593638e+005 1.977858960140e+005 1.938678040435e+005 1.895038896727e+005 1.868664129601e+005 1.792866464805e+005 1.747649434568e+005 1.722831853226e+005 1.641228076895e+005 1.578899836853e+005 1.548177004654e+005 1.446706927687e+005 1.381256102561e+005 1.310329802993e+005 1.222460680643e+005 1.130076036504e+005 1.029097905851e+005 9.066176965786e+004 7.713755115337e+004 6.022326963647e+004 3.816249139627e+004 6.522120821139e+003 0.000000000000e+000 0.000000000000e+000 0.000000000000e+000 0.000000000000e+000 0.000000000000e+000 0.000000000000e+000 0.000000000000e+000 0.000000000000e+000 0.000000000000e+000 0.000000000000e+000 0.000000000000e+000 0.000000000000e+000 0.000000000000e+000 0.000000000000e+000 0.000000000000e+000 0.000000000000e+000 0.000000000000e+000 0.000000000000e+000 0.000000000000e+000 0.000000000000e+000 0.000000000000e+000 0.000000000000e+000 0.000000000000e+000 0.000000000000e+000 0.000000000000e+000 0.000000000000e+000 0.000000000000e+000 0.000000000000e+000 0.000000000000e+000 0.000000000000e+000 0.000000000000e+000 0.000000000000e+000 0.000000000000e+000 0.000000000000e+000 0.000000000000e+000 0.000000000000e+000 0.000000000000e+000 0.000000000000e+000 0.000000000000e+000 0.000000000000e+000 0.000000000000e+000 0.000000000000e+000 0.000000000000e+000 0.000000000000e+000 0.000000000000e+000 0.000000000000e+000 0.000000000000e+000 0.000000000000e+000 0.000000000000e+000 0.000000000000e+000 0.000000000000e+000 0.000000000000e+000 0.000000000000e+000 0.000000000000e+000 0.000000000000e+000 0.000000000000e+000 0.000000000000e+000 0.000000000000e+000 0.000000000000e+000 0.000000000000e+000 0.000000000000e+000 0.000000000000e+000 0.000000000000e+000 6.518807676725e+003 3.815048764697e+004 6.019236073832e+004 7.712919633677e+004 9.064625461400e+004 1.029132854394e+005 1.130288387373e+005 1.222342432873e+005 1.310305983921e+005 1.381189120335e+005 1.446631296416e+005 1.548145841229e+005 1.578817302487e+005 1.641050892997e+005 1.722767320913e+005 1.747615165669e+005 1.792935844261e+005 1.868552551575e+005 1.895002265521e+005 1.938576051496e+005 1.977685234609e+005 2.016412772112e+005 2.088731105525e+005 2.124273581333e+005 2.163093034887e+005 2.198119682154e+005 2.205367798494e+005 2.242723068856e+005 2.278076281232e+005 2.313919362573e+005 2.345400011625e+005 2.378934523168e+005 2.436146373865e+005 2.449124137013e+005 2.481762942492e+005 2.516973521730e+005 2.522405808636e+005 2.555680436232e+005 2.593020157523e+005 2.622042123925e+005 2.655427804758e+005 2.661900381378e+005 2.687848411332e+005 2.703734400694e+005 2.749624278741e+005 2.781389967030e+005 2.785600452239e+005 2.818819371001e+005 2.848719018594e+005 2.855730811447e+005 2.896128643183e+005 2.899875138598e+005 2.932318966904e+005 2.969900425865e+005 2.981213879369e+005 2.985930530329e+005 3.007827240906e+005 3.051278181550e+005 3.061052546950e+005 3.066384260539e+005 3.105014946464e+005 3.107215062834e+005 3.147489980554e+005 3.156409421153e+005 3.180980854075e+005 3.185746263822e+005 3.214040184112e+005 3.246680002483e+005 3.255489156233e+005 3.259054917506e+005 3.285829819448e+005 3.317513267473e+005 3.325431397984e+005 3.328133139464e+005 3.352150214796e+005 3.378238688235e+005 3.378996310952e+005 3.415019044144e+005 3.422337461059e+005 3.442129137140e+005 3.447417907043e+005 3.479372920717e+005 3.485732242126e+005 3.506393111178e+005 3.511320893447e+005 3.542827041147e+005 3.548984618973e+005 3.570904536905e+005 3.574280005423e+005 3.604312885950e+005 3.609984546788e+005 3.612067860713e+005 3.645863342582e+005 3.666985458503e+005 3.671101575809e+005 3.691361796733e+005 3.690789133517e+005 3.714370268419e+005 3.714957551821e+005 3.735189232461e+005 3.756703075898e+005 3.757411067860e+005 3.777851096537e+005 3.796812023136e+005 3.799614320584e+005 3.818410411262e+005 3.827461861391e+005 3.854807471856e+005 3.852546284191e+005 3.852522174210e+005 3.852555452796e+005 3.852544903915e+005 3.852516557063e+005 3.852530669659e+005 3.852536187679e+005 3.852514963065e+005 3.852522228572e+005 3.852545223562e+005 3.852535988622e+005 3.852515624271e+005 3.852521207299e+005 0.000000000000e+000 3.777606991175e+005 0.000000000000e+000 0.000000000000e+000 5.128212143395e+004 1.349652162558e+005 1.793234662228e+005 3.607894613919e+005 2.084972353349e+005 3.486079101516e+005 3.380874394451e+005 3.258152191168e+005 3.057419977933e+005 2.902271833739e+005 2.744276211422e+005 2.552029491553e+005 2.348824710764e+005 3.693235699472e+005 3.156600774129e+005 2.205204015367e+005 2.235469408294e+005 2.449071910898e+005 2.655529409811e+005 2.818644480375e+005 2.981244622738e+005 0.000000000000e+000 0.000000000000e+000 1.016989674040e+005 2.981199121651e+005 2.820589982902e+005 2.653963468262e+005 2.445436557276e+005 1.576969079908e+005 1.938476896000e+005 3.549131784426e+005 3.442866725854e+005 3.324723064444e+005 1.937932080998e+005 1.578646058748e+005 1.028918834037e+005 0.000000000000e+000 0.000000000000e+000 3.325671380534e+005 3.442172077000e+005 3.548904991734e+005 0.000000000000e+000 0.000000000000e+000 3.186917624878e+005 3.110443247043e+005 3.733305042283e+005 3.645876409424e+005 0.000000000000e+000 3.799558225600e+005 0.000000000000e+000 3.799643298725e+005 3.730917884356e+005 3.646327342121e+005 3.215529225404e+005 3.102594658798e+005 0.000000000000e+000 2.348749203223e+005 0.000000000000e+000 2.551987050088e+005 2.744181386282e+005 2.902109691156e+005 3.053677251305e+005 2.085485897689e+005 4.961569398045e+004 1.340719335862e+005 1.792824821536e+005 3.486444315843e+005 3.381544954799e+005 2.094835971507e+005 1.794377005769e+005 1.348864804646e+005 5.018241801864e+004 2.902270242887e+005 2.744112479611e+005 2.552220008718e+005 0.000000000000e+000 2.348593711505e+005 0.000000000000e+000 3.258816944938e+005 3.381087977358e+005 3.486380652020e+005 3.607919306844e+005 0.000000000000e+000 0.000000000000e+000 3.757401389180e+005 3.604207055032e+005 3.019433594069e+005 3.280795091292e+005 0.000000000000e+000 3.818962092764e+005 3.693092901286e+005 3.777247366674e+005 3.693260128691e+005 3.157027908056e+005 3.211752949685e+005 3.107452816143e+005 3.735121246688e+005 3.645576280607e+005 3.156321675615e+005 0.000000000000e+000 9.263314828472e+004 0.000000000000e+000 1.549299580708e+005 0.000000000000e+000 1.899309205775e+005 2.438152107128e+005 2.787499218763e+005 2.941447173497e+005 2.623168967156e+005 3.542982945022e+005 3.327600309406e+005 3.442493995060e+005 2.241479628497e+005 3.156677976850e+005 0.000000000000e+000 3.827331647584e+005 0.000000000000e+000 3.827291060671e+005 2.392906449200e+005 2.594235433113e+005 2.787676949982e+005 2.936544463470e+005 2.016779066073e+005 2.276423332633e+005 2.163716778326e+005 1.687944086200e+005 3.287812885214e+005 1.165809826014e+005 3.420235888302e+005 0.000000000000e+000 3.514232585112e+005 0.000000000000e+000 0.000000000000e+000 0.000000000000e+000 0.000000000000e+000 0.000000000000e+000 1.173918946776e+005 8.648496102394e+004 1.689340365496e+005 1.515071565268e+005 3.513611634936e+005 1.903597806986e+005 2.016961403052e+005 3.419772758034e+005 3.449247263346e+005 2.936353963322e+005 2.787486338042e+005 2.593564402715e+005 2.851945743733e+005 2.665362857363e+005 2.432319170552e+005 2.478225543801e+005 3.328647978109e+005 2.163529662478e+005 2.273889943657e+005 0.000000000000e+000 3.572596886406e+005 0.000000000000e+000 3.448529747993e+005 8.850978577764e+004 3.329484205999e+005 1.509071086687e+005 3.009855003668e+005 2.853292202760e+005 2.666753923096e+005 2.509967580999e+005 1.905193108384e+005 3.693047313255e+005 0.000000000000e+000 0.000000000000e+000 3.101024417539e+005 3.241150458036e+005 3.644035338295e+005 2.164701165101e+005 2.665262449192e+005 2.477607331742e+005 2.851454845714e+005 3.009666417766e+005 3.572307165136e+005 3.420729497868e+005 0.000000000000e+000 3.288101066919e+005 0.000000000000e+000 1.180375872027e+005 2.015641147863e+005 1.650077869771e+005 3.570967143080e+005 0.000000000000e+000 0.000000000000e+000 3.142598075606e+005 3.735045508222e+005 0.000000000000e+000 2.161688279022e+005 2.050592817290e+005 1.723925269052e+005 3.284051940267e+005 1.230108570236e+005 3.414584905332e+005 2.856340813080e+005 2.688362049112e+005 2.517797053741e+005 0.000000000000e+000 3.574236022016e+005 0.000000000000e+000 3.668868060044e+005 3.012076431024e+005 0.000000000000e+000 0.000000000000e+000 0.000000000000e+000 2.984707753369e+005 3.318348875483e+005 3.065671406240e+005 3.248057038483e+005 3.796899666001e+005 3.611617161902e+005 3.756372021410e+005 3.713756797120e+005 3.611578908186e+005 2.379211215669e+005 2.593162910599e+005 2.781666695619e+005 2.932437959043e+005 4.625291588439e+003 3.511415670165e+005 0.000000000000e+000 2.278607409409e+005 1.868832811094e+005 7.982415259992e+003 1.445573306448e+005 0.000000000000e+000 7.707680969477e+004 2.384787269216e+005 2.593372120755e+005 2.781094872387e+005 2.931918344694e+005 3.510745040526e+005 3.351855291894e+005 3.479522480270e+005 3.479504068240e+005 7.625865661347e+004 3.347641105731e+005 1.445732576540e+005 1.867927618006e+005 2.278351203788e+005 0.000000000000e+000 0.000000000000e+000 3.827309382372e+005 3.827378909273e+005 0.000000000000e+000 3.792483771825e+005 0.000000000000e+000 0.000000000000e+000 3.778246928651e+005 0.000000000000e+000 3.756534334726e+005 3.792592299579e+005 3.249955788435e+005 3.059768498913e+005 3.606024278848e+005 3.755610779576e+005 3.256025809183e+005 3.669971746673e+005 3.671404307145e+005 3.059971129463e+005 3.712685302020e+005 3.211160050742e+005 3.143935296631e+005 3.714280411861e+005 3.417827023651e+005 2.012444371322e+005 1.682076673992e+005 1.201989135406e+005 0.000000000000e+000 0.000000000000e+000 2.166017872182e+005 3.012334631579e+005 2.850091050521e+005 2.693114880421e+005 2.514323141696e+005 3.185049449129e+005 3.670752838351e+005 3.112918835102e+005 3.180764103663e+005 0.000000000000e+000 0.000000000000e+000 3.569772291009e+005 3.312186981200e+005 3.778547198914e+005 3.799134887302e+005 0.000000000000e+000 3.713249048547e+005 2.349897507205e+005 2.581916123611e+005 2.750105346767e+005 2.900186617554e+005 2.089025061803e+005 2.092925907717e+005 2.313173984914e+005 1.747024512661e+005 1.323833091560e+005 3.259356540681e+005 3.659616114984e+004 3.382617898564e+005 0.000000000000e+000 3.506610915656e+005 0.000000000000e+000 0.000000000000e+000 3.622193938956e+004 1.323191679690e+005 1.758397503125e+005 3.506772829415e+005 3.382703533448e+005 2.899932356295e+005 2.750230670800e+005 2.582047412932e+005 0.000000000000e+000 3.604130028126e+005 3.020431206230e+005 0.000000000000e+000 0.000000000000e+000 0.000000000000e+000 3.576240296822e+005 3.612636631052e+005 3.756396819796e+005 3.146854053414e+005 0.000000000000e+000 0.000000000000e+000 1.079738956930e+005 1.613220327509e+005 1.980403906506e+005 3.549752799273e+005 3.421638663735e+005 3.321033631010e+005 2.449485614348e+005 2.820679444870e+005 2.985428175594e+005 2.661592652534e+005 2.201952367249e+005 0.000000000000e+000 0.000000000000e+000 0.000000000000e+000 0.000000000000e+000 1.353975481366e+005 1.791721703101e+005 3.381829853532e+005 2.900619837989e+005 2.741133868514e+005 2.550010818256e+005 3.821172591473e+005 3.181601632374e+005 2.092260857894e+005 2.089076684048e+005 3.053842047227e+005 0.000000000000e+000 3.853240025251e+005 3.284111977150e+005 3.009559854706e+005 1.938959276661e+005 1.579438378264e+005 1.029467299585e+005 0.000000000000e+000 0.000000000000e+000 3.325179807538e+005 3.441978577844e+005 3.549019209080e+005 2.655421596085e+005 2.449177111429e+005 2.981217541287e+005 2.819441898863e+005 0.000000000000e+000 0.000000000000e+000 2.819370214565e+005 2.655257579739e+005 1.028965614342e+005 2.449207937053e+005 1.578952904861e+005 1.938203733260e+005 3.442209138141e+005 2.204898225973e+005 2.205484386969e+005 3.668656432318e+005 3.220063855546e+005 3.690863947215e+005 2.989296194546e+005 3.154700268174e+005 0.000000000000e+000 0.000000000000e+000 3.105055981360e+005 3.070227136206e+005 3.151023075654e+005 2.046758280214e+005 2.354756020630e+005 2.314408183952e+005 2.120077410568e+005 2.515222690604e+005 2.699619845037e+005 2.892041199057e+005 1.820883670133e+005 3.483705553884e+005 3.374903603284e+005 0.000000000000e+000 6.810878643807e+004 1.412615090701e+005 0.000000000000e+000 3.483679250660e+005 6.816955520124e+004 3.374865918685e+005 2.892020503748e+005 2.699404470915e+005 2.519066331663e+005 1.412675220300e+005 1.820955801969e+005 3.822116208230e+005 3.755143594323e+005 0.000000000000e+000 3.822045343165e+005 2.348381576646e+005 2.349263398767e+005 3.486486083459e+005 3.486546422597e+005 4.914053625225e+004 4.962352153370e+004 0.000000000000e+000 3.712256854770e+005 3.777577331918e+005 3.603969806215e+005 3.693378425431e+005 0.000000000000e+000 3.853264288041e+005 0.000000000000e+000 3.853246350233e+005 3.733511532989e+005 0.000000000000e+000 0.000000000000e+000 1.794702936434e+005 1.349113524334e+005 3.381065514386e+005 2.550901003015e+005 2.902640314512e+005 2.744673858389e+005 0.000000000000e+000 3.646923080153e+005 3.646495395532e+005 3.756536303640e+005 3.063679653819e+005 3.251536101008e+005 3.756750384436e+005 3.610058947459e+005 3.548000250608e+005 3.212604266583e+005 3.641419100923e+005 0.000000000000e+000 0.000000000000e+000 3.241844065589e+005 3.067743237516e+005 0.000000000000e+000 3.260495160662e+005 3.066325362562e+005 3.105864213999e+005 0.000000000000e+000 3.572559597604e+005 0.000000000000e+000 2.856280695045e+005 2.688473802446e+005 2.517738542184e+005 2.129629633443e+005 3.420026441704e+005 1.166489160900e+005 3.311494755667e+005 1.688527125017e+005 2.051595512034e+005 0.000000000000e+000 3.671303438370e+005 3.113792581595e+005 3.179437344245e+005 3.258962354777e+005 3.714586146841e+005 0.000000000000e+000 3.853269075330e+005 0.000000000000e+000 3.854678487258e+005 3.778930391312e+005 3.607712995726e+005 3.157550286922e+005 3.212463190493e+005 0.000000000000e+000 3.327638144156e+005 2.977325213929e+005 3.646610424362e+005 3.062978770262e+005 3.692074663342e+005 1.904233842849e+005 1.503832934555e+005 8.741177009082e+004 3.329961689068e+005 3.449269197884e+005 7.531976536522e+004 0.000000000000e+000 1.444599590456e+005 1.015735261793e+004 1.866755611440e+005 3.479880325851e+005 3.347981886737e+005 3.505774396003e+005 2.931497219129e+005 2.592308619013e+005 2.754673512877e+005 2.386737997034e+005 0.000000000000e+000 0.000000000000e+000 3.513829054395e+005 2.274847666764e+005 2.937290326820e+005 2.788516192896e+005 2.594918617211e+005 2.432571993753e+005 2.279243201851e+005 2.205227740549e+005 2.449104464371e+005 2.819484246181e+005 2.655654854742e+005 2.981251581708e+005 0.000000000000e+000 0.000000000000e+000 1.028560682209e+005 1.938429313222e+005 1.578589221507e+005 3.548943862807e+005 3.442193411970e+005 3.325432475350e+005 3.252071072192e+005 3.611486160862e+005 0.000000000000e+000 3.778868237950e+005 2.280705017836e+005 2.385418238915e+005 2.591296176511e+005 2.778886684839e+005 2.930380990603e+005 1.555642074960e+004 0.000000000000e+000 3.504800905846e+005 7.362436775615e+004 1.443267428298e+005 1.865258786618e+005 3.481793946421e+005 3.348464898619e+005 3.153151356485e+005 0.000000000000e+000 3.182196849021e+005 0.000000000000e+000 2.236799834626e+005 2.204226730520e+005 2.447099478212e+005 2.652209450299e+005 2.817036651637e+005 2.978099193088e+005 0.000000000000e+000 0.000000000000e+000 1.042559548847e+005 1.617009233223e+005 1.934013906091e+005 3.441121575521e+005 1.939706115695e+005 2.818207117565e+005 2.631761539029e+005 2.447591844793e+005 1.579933766111e+005 1.029908812451e+005 3.324822743300e+005 0.000000000000e+000 3.441759225566e+005 0.000000000000e+000 3.548990337519e+005 3.693228947969e+005 0.000000000000e+000 3.545067535758e+005 0.000000000000e+000 2.787932171202e+005 2.438775486619e+005 2.621890218258e+005 2.941747190167e+005 3.441444321299e+005 9.374139485654e+004 3.324615275780e+005 1.537127576081e+005 1.901510681053e+005 2.239329625532e+005 3.777958970330e+005 0.000000000000e+000 3.853279284001e+005 0.000000000000e+000 0.000000000000e+000 0.000000000000e+000 3.183788606357e+005 3.115362554346e+005 3.648067469895e+005 3.548365932751e+005 0.000000000000e+000 3.774031137357e+005 0.000000000000e+000 0.000000000000e+000 3.609214199642e+005 2.052287861719e+005 1.725261444389e+005 3.285037472966e+005 1.265339643885e+005 3.414015537320e+005 2.516817846790e+005 2.688443100896e+005 2.855611771138e+005 2.129735268162e+005 0.000000000000e+000 3.575101046152e+005 0.000000000000e+000 3.259108850821e+005 3.054523018811e+005 3.186174413580e+005 3.734745756624e+005 3.756374358637e+005 0.000000000000e+000 3.819243432928e+005 0.000000000000e+000 3.819252712297e+005 2.976847070838e+005 3.327474019923e+005 3.009642299735e+005 3.713588177548e+005 0.000000000000e+000 3.821247912961e+005 3.216129621796e+005 3.109723324116e+005 3.187201505040e+005 3.648298962736e+005 3.733730732386e+005 3.691672224108e+005 3.289138047446e+005 3.733791547104e+005 3.671721864647e+005 3.185266495388e+005 3.757505999078e+005 3.735616279599e+005 3.152187388756e+005 3.245855205103e+005 3.107947785181e+005 3.213321821215e+005 0.000000000000e+000 3.796870656408e+005 3.573747410706e+005 2.201317360795e+005 2.120774720405e+005 0.000000000000e+000 0.000000000000e+000 0.000000000000e+000 0.000000000000e+000 1.231054010991e+005 1.724715485617e+005 3.414172971949e+005 1.974552745044e+005 2.046162686818e+005 2.985464586132e+005 3.010889493112e+005 2.847906908719e+005 2.891416398022e+005 2.698662753008e+005 2.657267104392e+005 2.481705246505e+005 2.522251778279e+005 3.799484753598e+005 0.000000000000e+000 0.000000000000e+000 0.000000000000e+000 0.000000000000e+000 3.822377195550e+005 0.000000000000e+000 2.391111880712e+005 2.592941947976e+005 2.786597886283e+005 2.929601182155e+005 2.276516160172e+005 2.159129143294e+005 2.018216996272e+005 1.690117330026e+005 3.286826109677e+005 1.174514169973e+005 3.419409035451e+005 0.000000000000e+000 3.513510274163e+005 0.000000000000e+000 0.000000000000e+000 0.000000000000e+000 0.000000000000e+000 1.174731883444e+005 1.69010