<?xml version="1.0"?>
<VTKFile type="UnstructuredGrid" version="0.1" byte_order="LittleEndian">
  <UnstructuredGrid>
    <Piece NumberOfPoints="2604" NumberOfCells="4910">
      <Points>
        <DataArray type="Float64" NumberOfComponents="3" format="ascii">
          0.000000000000e+000 0.000000000000e+000 0.000000000000e+000
          2.000000000000e+002 0.000000000000e+000 0.000000000000e+000
          2.000000000000e+002 2.000000000000e+001 0.000000000000e+000
          0.000000000000e+000 2.000000000000e+001 0.000000000000e+000
          1.492537313427e+000 0.000000000000e+000 0.000000000000e+000
          2.985074626854e+000 0.000000000000e+000 0.000000000000e+000
          4.477611940281e+000 0.000000000000e+000 0.000000000000e+000
          5.970149253708e+000 0.000000000000e+000 0.000000000000e+000
          7.462686567135e+000 0.000000000000e+000 0.000000000000e+000
          8.955223880561e+000 0.000000000000e+000 0.000000000000e+000
          1.044776119399e+001 0.000000000000e+000 0.000000000000e+000
          1.194029850741e+001 0.000000000000e+000 0.000000000000e+000
          1.343283582084e+001 0.000000000000e+000 0.000000000000e+000
          1.492537313427e+001 0.000000000000e+000 0.000000000000e+000
          1.641791044770e+001 0.000000000000e+000 0.000000000000e+000
          1.791044776112e+001 0.000000000000e+000 0.000000000000e+000
          1.940298507455e+001 0.000000000000e+000 0.000000000000e+000
          2.089552238798e+001 0.000000000000e+000 0.000000000000e+000
          2.238805970141e+001 0.000000000000e+000 0.000000000000e+000
          2.388059701484e+001 0.000000000000e+000 0.000000000000e+000
          2.537313432826e+001 0.000000000000e+000 0.000000000000e+000
          2.686567164169e+001 0.000000000000e+000 0.000000000000e+000
          2.835820895511e+001 0.000000000000e+000 0.000000000000e+000
          2.985074626854e+001 0.000000000000e+000 0.000000000000e+000
          3.134328358196e+001 0.000000000000e+000 0.000000000000e+000
          3.283582089539e+001 0.000000000000e+000 0.000000000000e+000
          3.432835820881e+001 0.000000000000e+000 0.000000000000e+000
          3.582089552224e+001 0.000000000000e+000 0.000000000000e+000
          3.731343283566e+001 0.000000000000e+000 0.000000000000e+000
          3.880597014909e+001 0.000000000000e+000 0.000000000000e+000
          4.029850746251e+001 0.000000000000e+000 0.000000000000e+000
          4.179104477594e+001 0.000000000000e+000 0.000000000000e+000
          4.328358208936e+001 0.000000000000e+000 0.000000000000e+000
          4.477611940279e+001 0.000000000000e+000 0.000000000000e+000
          4.626865671621e+001 0.000000000000e+000 0.000000000000e+000
          4.776119402964e+001 0.000000000000e+000 0.000000000000e+000
          4.925373134306e+001 0.000000000000e+000 0.000000000000e+000
          5.074626865649e+001 0.000000000000e+000 0.000000000000e+000
          5.223880596991e+001 0.000000000000e+000 0.000000000000e+000
          5.373134328334e+001 0.000000000000e+000 0.000000000000e+000
          5.522388059676e+001 0.000000000000e+000 0.000000000000e+000
          5.671641791019e+001 0.000000000000e+000 0.000000000000e+000
          5.820895522361e+001 0.000000000000e+000 0.000000000000e+000
          5.970149253704e+001 0.000000000000e+000 0.000000000000e+000
          6.119402985046e+001 0.000000000000e+000 0.000000000000e+000
          6.268656716389e+001 0.000000000000e+000 0.000000000000e+000
          6.417910447732e+001 0.000000000000e+000 0.000000000000e+000
          6.567164179075e+001 0.000000000000e+000 0.000000000000e+000
          6.716417910418e+001 0.000000000000e+000 0.000000000000e+000
          6.865671641761e+001 0.000000000000e+000 0.000000000000e+000
          7.014925373104e+001 0.000000000000e+000 0.000000000000e+000
          7.164179104447e+001 0.000000000000e+000 0.000000000000e+000
          7.313432835790e+001 0.000000000000e+000 0.000000000000e+000
          7.462686567133e+001 0.000000000000e+000 0.000000000000e+000
          7.611940298476e+001 0.000000000000e+000 0.000000000000e+000
          7.761194029819e+001 0.000000000000e+000 0.000000000000e+000
          7.910447761162e+001 0.000000000000e+000 0.000000000000e+000
          8.059701492505e+001 0.000000000000e+000 0.000000000000e+000
          8.208955223848e+001 0.000000000000e+000 0.000000000000e+000
          8.358208955191e+001 0.000000000000e+000 0.000000000000e+000
          8.507462686534e+001 0.000000000000e+000 0.000000000000e+000
          8.656716417877e+001 0.000000000000e+000 0.000000000000e+000
          8.805970149220e+001 0.000000000000e+000 0.000000000000e+000
          8.955223880563e+001 0.000000000000e+000 0.000000000000e+000
          9.104477611907e+001 0.000000000000e+000 0.000000000000e+000
          9.253731343250e+001 0.000000000000e+000 0.000000000000e+000
          9.402985074593e+001 0.000000000000e+000 0.000000000000e+000
          9.552238805936e+001 0.000000000000e+000 0.000000000000e+000
          9.701492537279e+001 0.000000000000e+000 0.000000000000e+000
          9.850746268622e+001 0.000000000000e+000 0.000000000000e+000
          9.999999999965e+001 0.000000000000e+000 0.000000000000e+000
          1.014925373131e+002 0.000000000000e+000 0.000000000000e+000
          1.029850746265e+002 0.000000000000e+000 0.000000000000e+000
          1.044776119399e+002 0.000000000000e+000 0.000000000000e+000
          1.059701492534e+002 0.000000000000e+000 0.000000000000e+000
          1.074626865668e+002 0.000000000000e+000 0.000000000000e+000
          1.089552238802e+002 0.000000000000e+000 0.000000000000e+000
          1.104477611937e+002 0.000000000000e+000 0.000000000000e+000
          1.119402985071e+002 0.000000000000e+000 0.000000000000e+000
          1.134328358205e+002 0.000000000000e+000 0.000000000000e+000
          1.149253731340e+002 0.000000000000e+000 0.000000000000e+000
          1.164179104474e+002 0.000000000000e+000 0.000000000000e+000
          1.179104477608e+002 0.000000000000e+000 0.000000000000e+000
          1.194029850742e+002 0.000000000000e+000 0.000000000000e+000
          1.208955223877e+002 0.000000000000e+000 0.000000000000e+000
          1.223880597011e+002 0.000000000000e+000 0.000000000000e+000
          1.238805970145e+002 0.000000000000e+000 0.000000000000e+000
          1.253731343280e+002 0.000000000000e+000 0.000000000000e+000
          1.268656716414e+002 0.000000000000e+000 0.000000000000e+000
          1.283582089548e+002 0.000000000000e+000 0.000000000000e+000
          1.298507462683e+002 0.000000000000e+000 0.000000000000e+000
          1.313432835817e+002 0.000000000000e+000 0.000000000000e+000
          1.328358208952e+002 0.000000000000e+000 0.000000000000e+000
          1.343283582086e+002 0.000000000000e+000 0.000000000000e+000
          1.358208955220e+002 0.000000000000e+000 0.000000000000e+000
          1.373134328355e+002 0.000000000000e+000 0.000000000000e+000
          1.388059701489e+002 0.000000000000e+000 0.000000000000e+000
          1.402985074624e+002 0.000000000000e+000 0.000000000000e+000
          1.417910447758e+002 0.000000000000e+000 0.000000000000e+000
          1.432835820892e+002 0.000000000000e+000 0.000000000000e+000
          1.447761194027e+002 0.000000000000e+000 0.000000000000e+000
          1.462686567161e+002 0.000000000000e+000 0.000000000000e+000
          1.477611940296e+002 0.000000000000e+000 0.000000000000e+000
          1.492537313430e+002 0.000000000000e+000 0.000000000000e+000
          1.507462686564e+002 0.000000000000e+000 0.000000000000e+000
          1.522388059699e+002 0.000000000000e+000 0.000000000000e+000
          1.537313432833e+002 0.000000000000e+000 0.000000000000e+000
          1.552238805968e+002 0.000000000000e+000 0.000000000000e+000
          1.567164179102e+002 0.000000000000e+000 0.000000000000e+000
          1.582089552237e+002 0.000000000000e+000 0.000000000000e+000
          1.597014925371e+002 0.000000000000e+000 0.000000000000e+000
          1.611940298505e+002 0.000000000000e+000 0.000000000000e+000
          1.626865671640e+002 0.000000000000e+000 0.000000000000e+000
          1.641791044774e+002 0.000000000000e+000 0.000000000000e+000
          1.656716417909e+002 0.000000000000e+000 0.000000000000e+000
          1.671641791043e+002 0.000000000000e+000 0.000000000000e+000
          1.686567164177e+002 0.000000000000e+000 0.000000000000e+000
          1.701492537312e+002 0.000000000000e+000 0.000000000000e+000
          1.716417910446e+002 0.000000000000e+000 0.000000000000e+000
          1.731343283581e+002 0.000000000000e+000 0.000000000000e+000
          1.746268656715e+002 0.000000000000e+000 0.000000000000e+000
          1.761194029849e+002 0.000000000000e+000 0.000000000000e+000
          1.776119402984e+002 0.000000000000e+000 0.000000000000e+000
          1.791044776118e+002 0.000000000000e+000 0.000000000000e+000
          1.805970149253e+002 0.000000000000e+000 0.000000000000e+000
          1.820895522387e+002 0.000000000000e+000 0.000000000000e+000
          1.835820895521e+002 0.000000000000e+000 0.000000000000e+000
          1.850746268656e+002 0.000000000000e+000 0.000000000000e+000
          1.865671641790e+002 0.000000000000e+000 0.000000000000e+000
          1.880597014925e+002 0.000000000000e+000 0.000000000000e+000
          1.895522388059e+002 0.000000000000e+000 0.000000000000e+000
          1.910447761194e+002 0.000000000000e+000 0.000000000000e+000
          1.925373134328e+002 0.000000000000e+000 0.000000000000e+000
          1.940298507462e+002 0.000000000000e+000 0.000000000000e+000
          1.955223880597e+002 0.000000000000e+000 0.000000000000e+000
          1.970149253731e+002 0.000000000000e+000 0.000000000000e+000
          1.985074626866e+002 0.000000000000e+000 0.000000000000e+000
          2.000000000000e+002 1.428571428570e+000 0.000000000000e+000
          2.000000000000e+002 2.857142857140e+000 0.000000000000e+000
[...]
      <PointData Scalars="Capillary_Pressure">
        <DataArray type="Float64" Name="Capillary_Pressure" format="ascii">
          3.343776176729e+005 0.000000000000e+000 0.000000000000e+000 3.343843706860e+005 3.346896120002e+005 3.313236065493e+005 3.303775469002e+005 3.280848646117e+005 3.277982377097e+005 3.255609962183e+005 3.232213583665e+005 3.231725666733e+005 3.207006256022e+005 3.206735126975e+005 3.185369805139e+005 3.158004469764e+005 3.159963775183e+005 3.137621382634e+005 3.134837922740e+005 3.111070546859e+005 3.071637173123e+005 3.072200455991e+005 3.067915205383e+005 3.033667076158e+005 3.032795019756e+005 3.008922947686e+005 3.004782862643e+005 2.969255373386e+005 2.967082399505e+005 2.945126407723e+005 2.941864449776e+005 2.905482731378e+005 2.903731571977e+005 2.883352955286e+005 2.879730994529e+005 2.838217011003e+005 2.843235501324e+005 2.815949983047e+005 2.790260240881e+005 2.793034218459e+005 2.789413962785e+005 2.754574765388e+005 2.728344239325e+005 2.728802230383e+005 2.688650567457e+005 2.689580689888e+005 2.659887118433e+005 2.661505252470e+005 2.637444715182e+005 2.632562388019e+005 2.589067856514e+005 2.593623340072e+005 2.551436347341e+005 2.552730533135e+005 2.509715847636e+005 2.500698000337e+005 2.480949246303e+005 2.483817362452e+005 2.478261551330e+005 2.438721703611e+005 2.404836349570e+005 2.410278274568e+005 2.367912169832e+005 2.367340176126e+005 2.339809858109e+005 2.305523928654e+005 2.276919450557e+005 2.279364534167e+005 2.229435859054e+005 2.220273067786e+005 2.196398997537e+005 2.165635950300e+005 2.167017219495e+005 2.140015779270e+005 2.102518942125e+005 2.069349075851e+005 2.074835954891e+005 2.040209151335e+005 2.009562971776e+005 2.005603215673e+005 1.940315887927e+005 1.909255365436e+005 1.880233092411e+005 1.844552095122e+005 1.810493151990e+005 1.772928196479e+005 1.777436559347e+005 1.743651196737e+005 1.704900513824e+005 1.670167291929e+005 1.584513511112e+005 1.545370974509e+005 1.505131887470e+005 1.458692731493e+005 1.436536021536e+005 1.341593398472e+005 1.290771236764e+005 1.271337856008e+005 1.162431406334e+005 1.080665485209e+005 1.050504549050e+005 8.930017169919e+004 7.927199199623e+004 6.746335134636e+004 5.035086747720e+004 2.895702224376e+004 2.439142247065e+003 0.000000000000e+000 0.000000000000e+000 0.000000000000e+000 0.000000000000e+000 0.000000000000e+000 0.000000000000e+000 0.000000000000e+000 0.000000000000e+000 0.000000000000e+000 0.000000000000e+000 0.000000000000e+000 0.000000000000e+000 0.000000000000e+000 0.000000000000e+000 0.000000000000e+000 0.000000000000e+000 0.000000000000e+000 0.000000000000e+000 0.000000000000e+000 0.000000000000e+000 0.000000000000e+000 0.000000000000e+000 0.000000000000e+000 0.000000000000e+000 0.000000000000e+000 0.000000000000e+000 0.000000000000e+000 0.000000000000e+000 0.000000000000e+000 0.000000000000e+000 0.000000000000e+000 0.000000000000e+000 0.000000000000e+000 0.000000000000e+000 0.000000000000e+000 0.000000000000e+000 0.000000000000e+000 0.000000000000e+000 0.000000000000e+000 0.000000000000e+000 0.000000000000e+000 0.000000000000e+000 0.000000000000e+000 0.000000000000e+000 0.000000000000e+000 0.000000000000e+000 0.000000000000e+000 0.000000000000e+000 0.000000000000e+000 0.000000000000e+000 0.000000000000e+000 0.000000000000e+000 0.000000000000e+000 0.000000000000e+000 0.000000000000e+000 0.000000000000e+000 0.000000000000e+000 0.000000000000e+000 0.000000000000e+000 0.000000000000e+000 0.000000000000e+000 0.000000000000e+000 0.000000000000e+000 0.000000000000e+000 0.000000000000e+000 0.000000000000e+000 0.000000000000e+000 0.000000000000e+000 0.000000000000e+000 0.000000000000e+000 0.000000000000e+000 0.000000000000e+000 0.000000000000e+000 2.464186451750e+003 2.904748180936e+004 5.034874086218e+004 6.746116742569e+004 7.927328036915e+004 8.928914936849e+004 1.050386099243e+005 1.080602175707e+005 1.162305429927e+005 1.271047901631e+005 1.290699782336e+005 1.341531143783e+005 1.436365573223e+005 1.458306586466e+005 1.504891260086e+005 1.544906938847e+005 1.584057809466e+005 1.670795135687e+005 1.704609830273e+005 1.743086424586e+005 1.777231081574e+005 1.772849676686e+005 1.810267483953e+005 1.844805616953e+005 1.880652580309e+005 1.909131437034e+005 1.940294440224e+005 2.005279547972e+005 2.009535261080e+005 2.040668661196e+005 2.074858848213e+005 2.069122317844e+005 2.102436698934e+005 2.139985229354e+005 2.167285159709e+005 2.199161905470e+005 2.196171189781e+005 2.220351597865e+005 2.228916992739e+005 2.279531623862e+005 2.310385517820e+005 2.306451197390e+005 2.338607794263e+005 2.367438858047e+005 2.368002261760e+005 2.410308133274e+005 2.404985530362e+005 2.439385994805e+005 2.478206921036e+005 2.483913740367e+005 2.481423627170e+005 2.500883763014e+005 2.549010443643e+005 2.552895473342e+005 2.551229281110e+005 2.593770933256e+005 2.589092785194e+005 2.632573418993e+005 2.637185668376e+005 2.661105609086e+005 2.659100514079e+005 2.689165469247e+005 2.724816299968e+005 2.728681451681e+005 2.727268472953e+005 2.754746795513e+005 2.788917297621e+005 2.793222994232e+005 2.790133563215e+005 2.815393774094e+005 2.843439755775e+005 2.838197413904e+005 2.879826867814e+005 2.883195141464e+005 2.903665506262e+005 2.905401917516e+005 2.941960080261e+005 2.945084594452e+005 2.967103540144e+005 2.969031055073e+005 3.004978345043e+005 3.008758511948e+005 3.032617848652e+005 3.033754018442e+005 3.067943852525e+005 3.071992446467e+005 3.071537800457e+005 3.111030550685e+005 3.134732141666e+005 3.137432841883e+005 3.159950907683e+005 3.158783413940e+005 3.183639128271e+005 3.183733962798e+005 3.206576529182e+005 3.232232902900e+005 3.231425605235e+005 3.255988880451e+005 3.277919832053e+005 3.280832087878e+005 3.303354664612e+005 3.313432196886e+005 3.346823466171e+005 3.343853055902e+005 3.343858917340e+005 3.343801849674e+005 3.343828503412e+005 3.343816637316e+005 3.343806390294e+005 3.343791399112e+005 3.343751065952e+005 3.343794041248e+005 3.343840547357e+005 3.343757513216e+005 3.343821591498e+005 3.343811484784e+005 0.000000000000e+000 3.255937851794e+005 0.000000000000e+000 0.000000000000e+000 0.000000000000e+000 7.407472203349e+004 1.349872466450e+005 3.070926227389e+005 1.658081685957e+005 2.943654608111e+005 2.844346126403e+005 2.729542877348e+005 2.551982937127e+005 2.413830147239e+005 2.277985142497e+005 2.104068401021e+005 1.919477272878e+005 3.161362986029e+005 2.637050473428e+005 1.773104484477e+005 1.813319461122e+005 2.009358879187e+005 2.200242573977e+005 2.338373454233e+005 2.483938321586e+005 0.000000000000e+000 0.000000000000e+000 -2.408871188287e+001 2.483877197925e+005 2.339577091220e+005 2.198411220776e+005 2.001957471156e+005 1.079665309114e+005 1.504457174608e+005 3.008855835273e+005 2.903942629391e+005 2.792765581879e+005 1.505606991203e+005 1.080629038671e+005 2.461124118128e+003 0.000000000000e+000 0.000000000000e+000 2.793523720505e+005 2.903713977107e+005 3.008862755716e+005 0.000000000000e+000 0.000000000000e+000 2.659659367550e+005 2.594891726144e+005 3.205989806903e+005 3.110254070439e+005 0.000000000000e+000 3.280623328912e+005 0.000000000000e+000 3.280900175470e+005 3.202935334254e+005 3.111059033753e+005 2.689847304840e+005 2.591865680170e+005 0.000000000000e+000 1.919950218743e+005 0.000000000000e+000 2.103645503384e+005 2.278190091636e+005 2.414030226208e+005 2.549446820912e+005 1.658148151603e+005 0.000000000000e+000 7.267401112836e+004 1.352218981770e+005 2.943632942101e+005 2.844295544431e+005 1.671077405090e+005 1.352378408040e+005 7.409687495688e+004 0.000000000000e+000 2.413943475461e+005 2.278138545491e+005 2.103742861483e+005 0.000000000000e+000 1.919130033185e+005 0.000000000000e+000 2.729776553506e+005 2.843890079190e+005 2.943467963232e+005 3.071094905181e+005 0.000000000000e+000 0.000000000000e+000 3.231550374254e+005 3.068143667909e+005 2.509010512549e+005 2.752975218914e+005 0.000000000000e+000 3.304089980595e+005 3.161333199423e+005 3.255531310169e+005 3.161625980090e+005 2.632248902038e+005 2.690336758368e+005 2.594356574839e+005 3.207455136850e+005 3.110684565670e+005 2.637191282318e+005 0.000000000000e+000 0.000000000000e+000 0.000000000000e+000 1.049932402837e+005 0.000000000000e+000 1.462286708056e+005 2.005223284762e+005 2.308706177975e+005 2.440001051621e+005 2.168433070230e+005 3.004984308027e+005 2.789979197872e+005 2.899944734333e+005 1.810196433795e+005 2.637469000650e+005 0.000000000000e+000 3.313178161482e+005 0.000000000000e+000 3.313253635440e+005 1.951706727085e+005 2.132360801003e+005 2.311740142960e+005 2.438631568636e+005 1.594555613004e+005 1.850171904861e+005 1.735028061607e+005 1.229299577089e+005 2.753558098974e+005 3.773049026216e+004 2.882666550233e+005 0.000000000000e+000 2.970347544413e+005 0.000000000000e+000 0.000000000000e+000 0.000000000000e+000 0.000000000000e+000 0.000000000000e+000 3.970004020919e+004 0.000000000000e+000 1.229816128342e+005 1.000266076708e+005 2.970256260185e+005 1.476104684498e+005 1.594690082931e+005 2.882544163281e+005 2.906006603502e+005 2.437558837275e+005 2.311822133808e+005 2.133387476113e+005 2.368550717714e+005 2.197281008347e+005 2.004568284860e+005 2.030375046049e+005 2.790523416272e+005 1.735870273148e+005 1.849544070471e+005 0.000000000000e+000 3.033635604968e+005 0.000000000000e+000 2.905685159485e+005 0.000000000000e+000 2.790810128579e+005 9.874460190643e+004 2.507355805447e+005 2.369238596060e+005 2.197718206864e+005 2.072146088235e+005 1.476740228883e+005 3.160824460529e+005 0.000000000000e+000 0.000000000000e+000 2.591427275969e+005 2.721275433051e+005 3.110115488195e+005 1.735722801894e+005 2.197199569629e+005 2.029922474639e+005 2.368001281549e+005 2.507325524091e+005 3.033457269992e+005 2.882464963858e+005 0.000000000000e+000 2.753097326862e+005 0.000000000000e+000 4.214765283548e+004 1.594198775757e+005 1.170909417280e+005 3.032489553763e+005 0.000000000000e+000 0.000000000000e+000 2.631412558149e+005 3.207036030669e+005 0.000000000000e+000 1.742572671501e+005 1.631092516831e+005 1.271588696416e+005 2.753606587223e+005 5.200763983220e+004 2.879147767760e+005 2.367684582519e+005 2.219286795459e+005 2.075309416981e+005 0.000000000000e+000 3.033633952281e+005 0.000000000000e+000 3.135754319084e+005 2.507142903527e+005 0.000000000000e+000 0.000000000000e+000 0.000000000000e+000 2.480834411472e+005 2.788311637525e+005 2.551641195903e+005 2.724605738443e+005 3.278299427822e+005 3.071607586390e+005 3.231671578415e+005 3.183486018647e+005 3.071305917980e+005 1.939875375442e+005 2.139807251050e+005 2.310764159245e+005 2.438816706360e+005 0.000000000000e+000 2.968954316235e+005 0.000000000000e+000 1.844677786760e+005 1.436723925180e+005 0.000000000000e+000 8.922762775709e+004 0.000000000000e+000 0.000000000000e+000 1.948473512631e+005 2.140334169184e+005 2.310494019572e+005 2.438971666715e+005 2.968099830000e+005 2.815448578403e+005 2.941733712880e+005 2.941710062662e+005 0.000000000000e+000 2.809356108814e+005 8.920972867694e+004 1.436478116102e+005 1.844961086230e+005 0.000000000000e+000 0.000000000000e+000 3.313262092935e+005 3.313525271944e+005 0.000000000000e+000 3.272714489956e+005 0.000000000000e+000 0.000000000000e+000 3.256053280775e+005 0.000000000000e+000 3.231245814132e+005 3.272777941081e+005 2.726451563394e+005 2.546289578000e+005 3.065537355268e+005 3.230551821355e+005 2.728810914751e+005 3.136318742565e+005 3.137624965562e+005 2.552741182470e+005 3.182698799826e+005 2.689246328058e+005 2.631534653178e+005 3.184081195304e+005 2.881995526971e+005 1.583183405017e+005 1.212329943711e+005 4.605698718903e+004 0.000000000000e+000 0.000000000000e+000 1.743703602842e+005 2.508251084667e+005 2.362590541604e+005 2.229416585735e+005 2.074106990921e+005 2.662745401364e+005 3.137233183602e+005 2.593382312432e+005 2.655008491438e+005 0.000000000000e+000 0.000000000000e+000 3.029081587953e+005 2.786752298472e+005 3.256215586539e+005 3.280055484607e+005 0.000000000000e+000 3.183159885045e+005 1.913718439999e+005 2.135963973509e+005 2.279298760917e+005 2.404532278922e+005 1.670117843131e+005 1.662958184330e+005 1.879138617263e+005 1.290649665548e+005 7.049063118637e+004 2.727843424218e+005 0.000000000000e+000 2.842809839512e+005 0.000000000000e+000 2.967366752975e+005 0.000000000000e+000 0.000000000000e+000 0.000000000000e+000 7.044116637342e+004 1.308411518534e+005 2.967684780456e+005 2.842847150725e+005 2.404630823628e+005 2.279521121324e+005 2.136370635611e+005 0.000000000000e+000 3.067896709162e+005 2.509344788442e+005 0.000000000000e+000 0.000000000000e+000 0.000000000000e+000 3.034147229995e+005 3.072580433633e+005 3.231071000572e+005 2.632647725234e+005 0.000000000000e+000 0.000000000000e+000 1.542539543845e+004 1.125742906378e+005 1.554683942989e+005 3.007995658059e+005 2.880666728235e+005 2.790828319198e+005 2.003247051597e+005 2.336972109089e+005 2.484691799278e+005 2.200210254560e+005 1.777179076694e+005 0.000000000000e+000 0.000000000000e+000 0.000000000000e+000 0.000000000000e+000 7.562283467373e+004 1.351601240161e+005 2.844405613530e+005 2.414052686170e+005 2.276257567152e+005 2.103125808429e+005 3.306757996205e+005 2.662687739145e+005 1.671073002402e+005 1.660309026874e+005 2.549609744213e+005 0.000000000000e+000 3.345120803429e+005 2.753983319534e+005 2.501439093593e+005 1.505605202160e+005 1.080753186158e+005 2.429478182442e+003 0.000000000000e+000 0.000000000000e+000 2.793196770822e+005 2.903455537023e+005 3.008827796725e+005 2.199237313447e+005 2.009566821796e+005 2.483972234998e+005 2.339420845084e+005 0.000000000000e+000 0.000000000000e+000 2.338954131424e+005 2.198796974004e+005 2.456777858945e+003 2.009616750433e+005 1.080652348235e+005 1.505188482482e+005 2.903490325266e+005 1.772740082468e+005 1.772729903999e+005 3.134197531923e+005 2.689749109710e+005 3.159832911859e+005 2.482441655836e+005 2.636862493744e+005 0.000000000000e+000 0.000000000000e+000 2.592984021665e+005 2.553239743281e+005 2.635113000957e+005 1.618352531352e+005 1.916375265456e+005 1.885518355269e+005 1.692289025291e+005 2.064841094492e+005 2.229159620328e+005 2.409025708486e+005 1.376260817612e+005 2.944554997903e+005 2.841467863640e+005 0.000000000000e+000 0.000000000000e+000 8.424976454608e+004 0.000000000000e+000 2.944487225771e+005 0.000000000000e+000 2.841258133419e+005 2.408487197995e+005 2.228548214941e+005 2.068240090391e+005 8.429043868745e+004 1.376445739028e+005 3.307696635598e+005 3.230256969088e+005 0.000000000000e+000 3.307851534127e+005 1.920302203086e+005 1.919661692565e+005 2.943484234754e+005 2.943798640681e+005 0.000000000000e+000 0.000000000000e+000 0.000000000000e+000 3.182550975120e+005 3.255572276403e+005 3.067913551307e+005 3.161974591419e+005 0.000000000000e+000 3.345051531776e+005 0.000000000000e+000 3.345108598139e+005 3.205564762926e+005 0.000000000000e+000 0.000000000000e+000 1.352376617177e+005 7.406945150510e+004 2.844446931536e+005 2.101658218279e+005 2.413908028599e+005 2.278164046214e+005 0.000000000000e+000 3.111108349574e+005 3.111312414624e+005 3.231422979711e+005 2.553121951850e+005 2.726635886189e+005 3.231920194388e+005 3.070812158365e+005 3.008382538842e+005 2.689398474977e+005 3.107400695689e+005 0.000000000000e+000 0.000000000000e+000 2.720762411866e+005 2.552583345749e+005 0.000000000000e+000 2.728652005926e+005 2.551788018475e+005 2.593660834958e+005 0.000000000000e+000 3.033655089654e+005 0.000000000000e+000 2.367612519216e+005 2.219153265470e+005 2.075296102692e+005 1.701113247072e+005 2.882526150543e+005 3.774234190903e+004 2.784465388202e+005 1.229531190004e+005 1.631029496301e+005 0.000000000000e+000 3.137757385812e+005 2.593814866886e+005 2.660104590459e+005 2.730003599004e+005 3.183305908830e+005 0.000000000000e+000 3.344872699036e+005 0.000000000000e+000 3.346711435930e+005 3.256460407624e+005 3.070994749541e+005 2.637214753042e+005 2.689969349692e+005 0.000000000000e+000 2.793883963692e+005 2.481857081649e+005 3.111340838807e+005 2.553336944021e+005 3.161242966354e+005 1.476056934610e+005 9.795621948059e+004 0.000000000000e+000 2.790636509595e+005 2.906388987086e+005 0.000000000000e+000 0.000000000000e+000 8.920332308981e+004 0.000000000000e+000 1.435923997353e+005 2.942022053205e+005 2.809083605372e+005 2.962159980714e+005 2.438978708702e+005 2.140730630600e+005 2.277062180999e+005 1.952520143862e+005 0.000000000000e+000 0.000000000000e+000 2.969959078384e+005 1.849511736328e+005 2.438858058914e+005 2.311849497296e+005 2.132741768395e+005 2.004225869837e+005 1.844178860408e+005 1.772660886968e+005 2.009675654161e+005 2.340111370875e+005 2.200079181282e+005 2.483844697739e+005 0.000000000000e+000 0.000000000000e+000 2.387075355322e+003 1.504982925440e+005 1.080300853307e+005 3.008914298892e+005 2.903213965769e+005 2.793088809819e+005 2.726730208517e+005 3.071874226899e+005 0.000000000000e+000 3.256717066743e+005 1.845522316667e+005 1.951313326461e+005 2.140063407914e+005 2.309278469412e+005 2.438680618395e+005 0.000000000000e+000 0.000000000000e+000 2.961529220278e+005 0.000000000000e+000 8.913860357987e+004 1.434871901456e+005 2.943803498328e+005 2.809643402710e+005 2.628954601963e+005 0.000000000000e+000 2.662327133271e+005 0.000000000000e+000 1.814042447975e+005 1.772907652131e+005 2.009389589224e+005 2.197542342701e+005 2.338281496984e+005 2.482115118955e+005 0.000000000000e+000 0.000000000000e+000 5.616912013667e+003 1.139624774368e+005 1.500711999416e+005 2.903316575703e+005 1.504361735545e+005 2.339527718538e+005 2.165210660033e+005 2.009264324896e+005 1.080826868458e+005 2.424576487350e+003 2.793339957966e+005 0.000000000000e+000 2.903370074778e+005 0.000000000000e+000 3.008832712907e+005 3.161116247540e+005 0.000000000000e+000 3.006936194502e+005 0.000000000000e+000 2.307676035906e+005 2.005240309557e+005 2.164730701694e+005 2.439135671055e+005 2.899600130320e+005 0.000000000000e+000 2.786643848931e+005 1.026042646878e+005 1.463519428520e+005 1.809055018883e+005 3.256105387610e+005 0.000000000000e+000 3.344957133653e+005 0.000000000000e+000 0.000000000000e+000 0.000000000000e+000 2.663222717420e+005 2.594248268133e+005 3.112476684697e+005 3.008584294759e+005 0.000000000000e+000 3.251365727591e+005 0.000000000000e+000 0.000000000000e+000 3.071756604356e+005 1.631505583031e+005 1.272104848105e+005 2.754649744664e+005 6.013932160802e+004 2.879477487944e+005 2.074874277438e+005 2.219393420066e+005 2.367768452023e+005 1.700549769986e+005 0.000000000000e+000 3.033910785063e+005 0.000000000000e+000 2.729598707562e+005 2.549647680077e+005 2.659545326705e+005 3.206960858044e+005 3.231244850402e+005 0.000000000000e+000 3.304305259525e+005 0.000000000000e+000 3.304237130236e+005 2.481620350373e+005 2.793906669765e+005 2.501069379253e+005 3.183438525385e+005 0.000000000000e+000 3.306649356439e+005 2.690471345366e+005 2.595123967579e+005 2.660143802614e+005 3.111944379500e+005 3.206276215289e+005 3.159181325965e+005 2.753541862957e+005 3.206079085775e+005 3.138017269447e+005 2.663189877200e+005 3.231904701780e+005 3.207239689279e+005 2.635813718744e+005 2.723688819051e+005 2.594425453049e+005 2.689815062314e+005 0.000000000000e+000 3.278015276351e+005 3.034197270721e+005 1.778442281742e+005 1.692730615290e+005 0.000000000000e+000 0.000000000000e+000 0.000000000000e+000 0.000000000000e+000 5.208559785231e+004 1.271701941739e+005 2.879128833232e+005 1.544097840031e+005 1.618318418276e+005 2.481082057162e+005 2.501878278104e+005 2.366304811589e+005 2.409005798442e+005 2.228448366283e+005 2.189720051658e+005 2.041584860852e+005 2.076004354986e+005 3.280620807102e+005 0.000000000000e+000 0.000000000000e+000 0.000000000000e+000 0.000000000000e+000 3.308006610829e+005 0.000000000000e+000 1.950874486147e+005 2.133127739287e+005 2.311688696894e+005 2.429682325533e+005 1.849461821339e+005 1.731270508796e+005 1.594190178117e+005 1.230054113950e+005 2.753345629255e+005 3.965122680779e+004 2.882130723919e+005 0.000000000000e+000 2.969735200679e+005 0.000000000000e+000 0.000000000000e+000 0.000000000000e+000 0.000000000000e+000 3.970768666338e+004 1.2301