<?xml version="1.0"?>
<VTKFile type="UnstructuredGrid" version="0.1" byte_order="LittleEndian">
  <UnstructuredGrid>
    <Piece NumberOfPoints="2604" NumberOfCells="4910">
      <Points>
        <DataArray type="Float64" NumberOfComponents="3" format="ascii">
          0.000000000000e+000 0.000000000000e+000 0.000000000000e+000
          2.000000000000e+002 0.000000000000e+000 0.000000000000e+000
          2.000000000000e+002 2.000000000000e+001 0.000000000000e+000
          0.000000000000e+000 2.000000000000e+001 0.000000000000e+000
          1.492537313427e+000 0.000000000000e+000 0.000000000000e+000
          2.985074626854e+000 0.000000000000e+000 0.000000000000e+000
          4.477611940281e+000 0.000000000000e+000 0.000000000000e+000
          5.970149253708e+000 0.000000000000e+000 0.000000000000e+000
          7.462686567135e+000 0.000000000000e+000 0.000000000000e+000
          8.955223880561e+000 0.000000000000e+000 0.000000000000e+000
          1.044776119399e+001 0.000000000000e+000 0.000000000000e+000
          1.194029850741e+001 0.000000000000e+000 0.000000000000e+000
          1.343283582084e+001 0.000000000000e+000 0.000000000000e+000
          1.492537313427e+001 0.000000000000e+000 0.000000000000e+000
          1.641791044770e+001 0.000000000000e+000 0.000000000000e+000
          1.791044776112e+001 0.000000000000e+000 0.000000000000e+000
          1.940298507455e+001 0.000000000000e+000 0.000000000000e+000
          2.089552238798e+001 0.000000000000e+000 0.000000000000e+000
          2.238805970141e+001 0.000000000000e+000 0.000000000000e+000
          2.388059701484e+001 0.000000000000e+000 0.000000000000e+000
          2.537313432826e+001 0.000000000000e+000 0.000000000000e+000
          2.686567164169e+001 0.000000000000e+000 0.000000000000e+000
          2.835820895511e+001 0.000000000000e+000 0.000000000000e+000
          2.985074626854e+001 0.000000000000e+000 0.000000000000e+000
          3.134328358196e+001 0.000000000000e+000 0.000000000000e+000
          3.283582089539e+001 0.000000000000e+000 0.000000000000e+000
          3.432835820881e+001 0.000000000000e+000 0.000000000000e+000
          3.582089552224e+001 0.000000000000e+000 0.000000000000e+000
          3.731343283566e+001 0.000000000000e+000 0.000000000000e+000
          3.880597014909e+001 0.000000000000e+000 0.000000000000e+000
          4.029850746251e+001 0.000000000000e+000 0.000000000000e+000
          4.179104477594e+001 0.000000000000e+000 0.000000000000e+000
          4.328358208936e+001 0.000000000000e+000 0.000000000000e+000
          4.477611940279e+001 0.000000000000e+000 0.000000000000e+000
          4.626865671621e+001 0.000000000000e+000 0.000000000000e+000
          4.776119402964e+001 0.000000000000e+000 0.000000000000e+000
          4.925373134306e+001 0.000000000000e+000 0.000000000000e+000
          5.074626865649e+001 0.000000000000e+000 0.000000000000e+000
          5.223880596991e+001 0.000000000000e+000 0.000000000000e+000
          5.373134328334e+001 0.000000000000e+000 0.000000000000e+000
          5.522388059676e+001 0.000000000000e+000 0.000000000000e+000
          5.671641791019e+001 0.000000000000e+000 0.000000000000e+000
          5.820895522361e+001 0.000000000000e+000 0.000000000000e+000
          5.970149253704e+001 0.000000000000e+000 0.000000000000e+000
          6.119402985046e+001 0.000000000000e+000 0.000000000000e+000
          6.268656716389e+001 0.000000000000e+000 0.000000000000e+000
          6.417910447732e+001 0.000000000000e+000 0.000000000000e+000
          6.567164179075e+001 0.000000000000e+000 0.000000000000e+000
          6.716417910418e+001 0.000000000000e+000 0.000000000000e+000
          6.865671641761e+001 0.000000000000e+000 0.000000000000e+000
          7.014925373104e+001 0.000000000000e+000 0.000000000000e+000
          7.164179104447e+001 0.000000000000e+000 0.000000000000e+000
          7.313432835790e+001 0.000000000000e+000 0.000000000000e+000
          7.462686567133e+001 0.000000000000e+000 0.000000000000e+000
          7.611940298476e+001 0.000000000000e+000 0.000000000000e+000
          7.761194029819e+001 0.000000000000e+000 0.000000000000e+000
          7.910447761162e+001 0.000000000000e+000 0.000000000000e+000
          8.059701492505e+001 0.000000000000e+000 0.000000000000e+000
          8.208955223848e+001 0.000000000000e+000 0.000000000000e+000
          8.358208955191e+001 0.000000000000e+000 0.000000000000e+000
          8.507462686534e+001 0.000000000000e+000 0.000000000000e+000
          8.656716417877e+001 0.000000000000e+000 0.000000000000e+000
          8.805970149220e+001 0.000000000000e+000 0.000000000000e+000
          8.955223880563e+001 0.000000000000e+000 0.000000000000e+000
          9.104477611907e+001 0.000000000000e+000 0.000000000000e+000
          9.253731343250e+001 0.000000000000e+000 0.000000000000e+000
          9.402985074593e+001 0.000000000000e+000 0.000000000000e+000
          9.552238805936e+001 0.000000000000e+000 0.000000000000e+000
          9.701492537279e+001 0.000000000000e+000 0.000000000000e+000
          9.850746268622e+001 0.000000000000e+000 0.000000000000e+000
          9.999999999965e+001 0.000000000000e+000 0.000000000000e+000
          1.014925373131e+002 0.000000000000e+000 0.000000000000e+000
          1.029850746265e+002 0.000000000000e+000 0.000000000000e+000
          1.044776119399e+002 0.000000000000e+000 0.000000000000e+000
          1.059701492534e+002 0.000000000000e+000 0.000000000000e+000
          1.074626865668e+002 0.000000000000e+000 0.000000000000e+000
          1.089552238802e+002 0.000000000000e+000 0.000000000000e+000
          1.104477611937e+002 0.000000000000e+000 0.000000000000e+000
          1.119402985071e+002 0.000000000000e+000 0.000000000000e+000
          1.134328358205e+002 0.000000000000e+000 0.000000000000e+000
          1.149253731340e+002 0.000000000000e+000 0.000000000000e+000
          1.164179104474e+002 0.000000000000e+000 0.000000000000e+000
          1.179104477608e+002 0.000000000000e+000 0.000000000000e+000
          1.194029850742e+002 0.000000000000e+000 0.000000000000e+000
          1.208955223877e+002 0.000000000000e+000 0.000000000000e+000
          1.223880597011e+002 0.000000000000e+000 0.000000000000e+000
          1.238805970145e+002 0.000000000000e+000 0.000000000000e+000
          1.253731343280e+002 0.000000000000e+000 0.000000000000e+000
          1.268656716414e+002 0.000000000000e+000 0.000000000000e+000
          1.283582089548e+002 0.000000000000e+000 0.000000000000e+000
          1.298507462683e+002 0.000000000000e+000 0.000000000000e+000
          1.313432835817e+002 0.000000000000e+000 0.000000000000e+000
          1.328358208952e+002 0.000000000000e+000 0.000000000000e+000
          1.343283582086e+002 0.000000000000e+000 0.000000000000e+000
          1.358208955220e+002 0.000000000000e+000 0.000000000000e+000
          1.373134328355e+002 0.000000000000e+000 0.000000000000e+000
          1.388059701489e+002 0.000000000000e+000 0.000000000000e+000
          1.402985074624e+002 0.000000000000e+000 0.000000000000e+000
          1.417910447758e+002 0.000000000000e+000 0.000000000000e+000
          1.432835820892e+002 0.000000000000e+000 0.000000000000e+000
          1.447761194027e+002 0.000000000000e+000 0.000000000000e+000
          1.462686567161e+002 0.000000000000e+000 0.000000000000e+000
          1.477611940296e+002 0.000000000000e+000 0.000000000000e+000
          1.492537313430e+002 0.000000000000e+000 0.000000000000e+000
          1.507462686564e+002 0.000000000000e+000 0.000000000000e+000
          1.522388059699e+002 0.000000000000e+000 0.000000000000e+000
          1.537313432833e+002 0.000000000000e+000 0.000000000000e+000
          1.552238805968e+002 0.000000000000e+000 0.000000000000e+000
          1.567164179102e+002 0.000000000000e+000 0.000000000000e+000
          1.582089552237e+002 0.000000000000e+000 0.000000000000e+000
          1.597014925371e+002 0.000000000000e+000 0.000000000000e+000
          1.611940298505e+002 0.000000000000e+000 0.000000000000e+000
          1.626865671640e+002 0.000000000000e+000 0.000000000000e+000
          1.641791044774e+002 0.000000000000e+000 0.000000000000e+000
          1.656716417909e+002 0.000000000000e+000 0.000000000000e+000
          1.671641791043e+002 0.000000000000e+000 0.000000000000e+000
          1.686567164177e+002 0.000000000000e+000 0.000000000000e+000
          1.701492537312e+002 0.000000000000e+000 0.000000000000e+000
          1.716417910446e+002 0.000000000000e+000 0.000000000000e+000
          1.731343283581e+002 0.000000000000e+000 0.000000000000e+000
          1.746268656715e+002 0.000000000000e+000 0.000000000000e+000
          1.761194029849e+002 0.000000000000e+000 0.000000000000e+000
          1.776119402984e+002 0.000000000000e+000 0.000000000000e+000
          1.791044776118e+002 0.000000000000e+000 0.000000000000e+000
          1.805970149253e+002 0.000000000000e+000 0.000000000000e+000
          1.820895522387e+002 0.000000000000e+000 0.000000000000e+000
          1.835820895521e+002 0.000000000000e+000 0.000000000000e+000
          1.850746268656e+002 0.000000000000e+000 0.000000000000e+000
          1.865671641790e+002 0.000000000000e+000 0.000000000000e+000
          1.880597014925e+002 0.000000000000e+000 0.000000000000e+000
          1.895522388059e+002 0.000000000000e+000 0.000000000000e+000
          1.910447761194e+002 0.000000000000e+000 0.000000000000e+000
          1.925373134328e+002 0.000000000000e+000 0.000000000000e+000
          1.940298507462e+002 0.000000000000e+000 0.000000000000e+000
          1.955223880597e+002 0.000000000000e+000 0.000000000000e+000
          1.970149253731e+002 0.000000000000e+000 0.000000000000e+000
          1.985074626866e+002 0.000000000000e+000 0.000000000000e+000
          2.000000000000e+002 1.428571428570e+000 0.000000000000e+000
          2.000000000000e+002 2.857142857140e+000 0.000000000000e+000
[...]
      <PointData Scalars="Capillary_Pressure">
        <DataArray type="Float64" Name="Capillary_Pressure" format="ascii">
          3.858286805886e+005 0.000000000000e+000 0.000000000000e+000 3.858309547670e+005 3.860558381730e+005 3.833255911365e+005 3.824633741790e+005 3.805328325583e+005 3.802599314546e+005 3.783658823339e+005 3.763385448921e+005 3.762625627702e+005 3.740947410753e+005 3.739269334480e+005 3.720459594073e+005 3.696757830328e+005 3.697208636497e+005 3.677030911851e+005 3.672937177646e+005 3.651895371494e+005 3.617954410260e+005 3.615890576524e+005 3.610230149036e+005 3.580180065675e+005 3.576815104379e+005 3.554955082641e+005 3.548694541718e+005 3.517282408360e+005 3.512262652626e+005 3.491603535182e+005 3.485210362895e+005 3.453206693227e+005 3.447945991029e+005 3.428158469839e+005 3.420776938077e+005 3.384775669061e+005 3.383902894958e+005 3.357803498818e+005 3.333896922822e+005 3.331013521348e+005 3.323031877127e+005 3.291455314806e+005 3.264679791791e+005 3.260981436444e+005 3.224312548491e+005 3.219632417868e+005 3.191344351447e+005 3.186405176151e+005 3.161995343371e+005 3.152903066095e+005 3.112012562837e+005 3.110102120394e+005 3.071517880254e+005 3.065908797723e+005 3.026282433177e+005 3.012571981456e+005 2.990712808274e+005 2.986024782183e+005 2.974720710496e+005 2.936784329653e+005 2.904557115767e+005 2.900798173912e+005 2.860264229704e+005 2.853269032244e+005 2.823980178750e+005 2.790174087206e+005 2.760048896650e+005 2.753815971156e+005 2.708315795417e+005 2.692249712116e+005 2.666126499706e+005 2.634573154541e+005 2.625931145312e+005 2.597141283088e+005 2.559764450056e+005 2.526469830076e+005 2.520952246648e+005 2.485477635684e+005 2.453019361919e+005 2.439846294296e+005 2.382760756740e+005 2.348981009206e+005 2.317514943160e+005 2.281454222686e+005 2.246075618974e+005 2.208763485296e+005 2.201440935447e+005 2.166289405296e+005 2.127374228289e+005 2.091956500051e+005 2.019740988765e+005 1.981009942044e+005 1.941668267499e+005 1.898081398858e+005 1.871624798585e+005 1.795884332673e+005 1.750632267891e+005 1.725740228570e+005 1.644196827430e+005 1.581889025083e+005 1.551108920573e+005 1.449770512639e+005 1.384373687311e+005 1.313519306367e+005 1.225794951231e+005 1.133602216278e+005 1.032873034115e+005 9.107990091628e+004 7.761450934736e+004 6.079813565866e+004 3.891138443099e+004 7.525716147017e+003 0.000000000000e+000 0.000000000000e+000 0.000000000000e+000 0.000000000000e+000 0.000000000000e+000 0.000000000000e+000 0.000000000000e+000 0.000000000000e+000 0.000000000000e+000 0.000000000000e+000 0.000000000000e+000 0.000000000000e+000 0.000000000000e+000 0.000000000000e+000 0.000000000000e+000 0.000000000000e+000 0.000000000000e+000 0.000000000000e+000 0.000000000000e+000 0.000000000000e+000 0.000000000000e+000 0.000000000000e+000 0.000000000000e+000 0.000000000000e+000 0.000000000000e+000 0.000000000000e+000 0.000000000000e+000 0.000000000000e+000 0.000000000000e+000 0.000000000000e+000 0.000000000000e+000 0.000000000000e+000 0.000000000000e+000 0.000000000000e+000 0.000000000000e+000 0.000000000000e+000 0.000000000000e+000 0.000000000000e+000 0.000000000000e+000 0.000000000000e+000 0.000000000000e+000 0.000000000000e+000 0.000000000000e+000 0.000000000000e+000 0.000000000000e+000 0.000000000000e+000 0.000000000000e+000 0.000000000000e+000 0.000000000000e+000 0.000000000000e+000 0.000000000000e+000 0.000000000000e+000 0.000000000000e+000 0.000000000000e+000 0.000000000000e+000 0.000000000000e+000 0.000000000000e+000 0.000000000000e+000 0.000000000000e+000 0.000000000000e+000 0.000000000000e+000 0.000000000000e+000 0.000000000000e+000 7.521232432952e+003 3.890005412663e+004 6.076954914020e+004 7.760526324619e+004 9.106521586540e+004 1.032904879403e+005 1.133812929325e+005 1.225677561486e+005 1.313496780224e+005 1.384308919274e+005 1.449702421205e+005 1.551070659278e+005 1.581809680421e+005 1.644032924000e+005 1.725668648671e+005 1.750603676343e+005 1.795913130291e+005 1.871545316585e+005 1.898032302794e+005 1.941570893057e+005 1.980809979612e+005 2.019527340400e+005 2.091900812477e+005 2.127416285471e+005 2.166311198235e+005 2.201438633161e+005 2.208725721687e+005 2.246172676243e+005 2.281545567683e+005 2.317423650074e+005 2.349011157885e+005 2.382582725302e+005 2.439733614824e+005 2.452853923087e+005 2.485512107728e+005 2.520809512163e+005 2.526339119272e+005 2.559629180938e+005 2.597033110821e+005 2.626072743252e+005 2.659552229354e+005 2.666112323826e+005 2.692075651994e+005 2.708096486284e+005 2.753945012366e+005 2.785755877602e+005 2.790033804266e+005 2.823336531883e+005 2.853282514465e+005 2.860285278894e+005 2.900819923434e+005 2.904625281126e+005 2.937076698707e+005 2.974680685154e+005 2.986081484481e+005 2.990850740466e+005 3.012819661890e+005 3.056254635408e+005 3.066122719070e+005 3.071528083306e+005 3.110140659493e+005 3.112420822205e+005 3.152713734381e+005 3.161707380148e+005 3.186260120926e+005 3.191110011687e+005 3.219464205110e+005 3.252063481140e+005 3.260968763167e+005 3.264572759487e+005 3.291380786674e+005 3.323072235390e+005 3.331034135447e+005 3.333821967423e+005 3.357826233798e+005 3.383909976393e+005 3.384760000367e+005 3.420741648760e+005 3.428121422601e+005 3.447919466912e+005 3.453237036754e+005 3.485189111992e+005 3.491594018167e+005 3.512253277694e+005 3.517224436970e+005 3.548704982176e+005 3.554898950214e+005 3.576819832460e+005 3.580218421979e+005 3.610224940092e+005 3.615929340312e+005 3.618041496225e+005 3.651799242228e+005 3.672910101210e+005 3.677045772090e+005 3.697286042738e+005 3.696700683465e+005 3.720338347315e+005 3.720917528704e+005 3.741122894309e+005 3.762582302328e+005 3.763332592508e+005 3.783720673244e+005 3.802664282050e+005 3.805464902802e+005 3.824225011003e+005 3.833274782380e+005 3.860553407113e+005 3.858300548294e+005 3.858275908534e+005 3.858313116039e+005 3.858299542864e+005 3.858280919250e+005 3.858287287784e+005 3.858288354420e+005 3.858275930507e+005 3.858282448419e+005 3.858294780452e+005 3.858297738058e+005 3.858268240854e+005 3.858278488139e+005 0.000000000000e+000 3.783479399799e+005 0.000000000000e+000 0.000000000000e+000 5.192189516361e+004 1.352788891195e+005 1.796184222716e+005 3.613820228008e+005 2.088177746548e+005 3.491944052274e+005 3.386581061007e+005 3.263622597504e+005 3.062433675946e+005 2.906927810896e+005 2.748556279904e+005 2.555953488747e+005 2.352385088747e+005 3.699178653136e+005 3.161884937862e+005 2.208592240130e+005 2.238780014802e+005 2.452815300362e+005 2.659572233370e+005 2.823196469576e+005 2.986087534073e+005 0.000000000000e+000 0.000000000000e+000 1.020800200451e+005 2.986053121350e+005 2.825030302679e+005 2.658077419936e+005 2.449209428921e+005 1.579964582459e+005 1.941567956832e+005 3.555046065146e+005 3.448685873555e+005 3.330311243742e+005 1.940941157076e+005 1.581643652142e+005 1.032698037744e+005 0.000000000000e+000 0.000000000000e+000 3.331306388704e+005 3.447964743542e+005 3.554817833519e+005 0.000000000000e+000 0.000000000000e+000 3.192305486178e+005 3.115628138900e+005 3.739254215370e+005 3.651798627646e+005 0.000000000000e+000 3.805409567550e+005 0.000000000000e+000 3.805485440407e+005 3.736831865343e+005 3.652270139643e+005 3.220942834824e+005 3.107722241340e+005 0.000000000000e+000 2.352278808295e+005 0.000000000000e+000 2.555891501944e+005 2.748466128769e+005 2.906782453433e+005 3.058674224416e+005 2.088680461707e+005 5.026896993811e+004 1.343875296322e+005 1.795752157221e+005 3.492333321710e+005 3.387270639422e+005 2.098020963323e+005 1.797317877564e+005 1.352007719863e+005 5.083132450490e+004 2.906925275850e+005 2.748418684976e+005 2.556114075269e+005 0.000000000000e+000 2.352178618565e+005 0.000000000000e+000 3.264302004756e+005 3.386829714582e+005 3.492267970082e+005 3.613840865211e+005 0.000000000000e+000 0.000000000000e+000 3.763315975271e+005 3.610108572988e+005 3.024469639984e+005 3.286299728471e+005 0.000000000000e+000 3.824767851896e+005 3.699036106759e+005 3.783120875910e+005 3.699197247452e+005 3.162405699778e+005 3.217025099496e+005 3.112603366593e+005 3.741051713797e+005 3.651467442259e+005 3.161605902415e+005 0.000000000000e+000 9.304401608970e+004 0.000000000000e+000 1.552241025884e+005 0.000000000000e+000 1.902327704133e+005 2.441879072304e+005 2.791767140446e+005 2.946236547502e+005 2.627090149240e+005 3.548868856157e+005 3.333276345545e+005 3.448334223567e+005 2.244881124289e+005 3.161925736044e+005 0.000000000000e+000 3.833147887553e+005 0.000000000000e+000 3.833097935768e+005 2.396580406526e+005 2.598458129872e+005 2.792173038855e+005 2.941335817394e+005 2.019907649829e+005 2.279861662957e+005 2.166952412988e+005 1.690842759028e+005 3.293367391530e+005 1.169247397555e+005 3.425996276783e+005 0.000000000000e+000 3.520143979786e+005 0.000000000000e+000 0.000000000000e+000 0.000000000000e+000 0.000000000000e+000 0.000000000000e+000 1.177345933101e+005 8.692062635244e+004 1.692254498762e+005 1.518044719634e+005 3.519517287527e+005 1.906647485229e+005 2.020093340520e+005 3.425524114516e+005 3.455134078266e+005 2.941210276024e+005 2.791946829023e+005 2.597645079901e+005 2.856554999768e+005 2.669603609804e+005 2.435910771382e+005 2.482056816090e+005 3.334315743003e+005 2.166779242828e+005 2.277284540993e+005 0.000000000000e+000 3.578512334701e+005 0.000000000000e+000 3.454399602485e+005 8.893580332441e+004 3.335146004994e+005 1.512085336971e+005 3.014811627043e+005 2.857864730577e+005 2.670971783213e+005 2.513741063289e+005 1.908172654569e+005 3.698988605514e+005 0.000000000000e+000 0.000000000000e+000 3.106136738217e+005 3.246533612244e+005 3.649950515981e+005 2.167930502302e+005 2.669423257642e+005 2.481547616125e+005 2.856115680225e+005 3.014616039722e+005 3.578218793374e+005 3.426519460177e+005 0.000000000000e+000 3.293699054753e+005 0.000000000000e+000 1.183744917912e+005 2.018717005802e+005 1.653139274977e+005 3.576883488593e+005 0.000000000000e+000 0.000000000000e+000 3.147771132811e+005 3.740967957124e+005 0.000000000000e+000 2.164885229728e+005 2.053613836664e+005 1.726826644813e+005 3.289547251449e+005 1.233425043937e+005 3.420329452434e+005 2.860937449647e+005 2.692660416854e+005 2.521588121999e+005 0.000000000000e+000 3.580173134586e+005 0.000000000000e+000 3.674812481950e+005 3.017022512579e+005 0.000000000000e+000 0.000000000000e+000 0.000000000000e+000 2.989618381749e+005 3.323944083851e+005 3.070797478790e+005 3.253509397680e+005 3.802738936773e+005 3.617609954268e+005 3.762271170339e+005 3.719647074459e+005 3.617553662149e+005 2.382926095907e+005 2.597190567068e+005 2.786036887901e+005 2.937204894632e+005 5.640992617767e+003 3.517317608728e+005 0.000000000000e+000 2.282086441960e+005 1.871766665716e+005 8.979122987541e+003 1.448644807382e+005 0.000000000000e+000 7.755268068320e+004 2.388454949417e+005 2.597346960841e+005 2.785397543499e+005 2.936651631167e+005 3.516669882465e+005 3.357552638975e+005 3.485332591068e+005 3.485325855843e+005 7.674065665905e+004 3.353356174116e+005 1.448801127863e+005 1.870916948626e+005 2.281853821990e+005 0.000000000000e+000 0.000000000000e+000 3.833121498405e+005 3.833183349133e+005 0.000000000000e+000 3.798336285698e+005 0.000000000000e+000 0.000000000000e+000 3.784129274656e+005 0.000000000000e+000 3.762444544126e+005 3.798453962709e+005 3.255375121485e+005 3.064898502999e+005 3.612000416851e+005 3.761519431897e+005 3.261487352057e+005 3.675914150434e+005 3.677332357709e+005 3.065018900010e+005 3.718618001036e+005 3.216490353311e+005 3.149126954412e+005 3.720227286511e+005 3.423558294257e+005 2.015602765089e+005 1.685045698774e+005 1.205357035966e+005 0.000000000000e+000 0.000000000000e+000 2.169272387018e+005 3.017293911568e+005 2.854738361599e+005 2.697352655479e+005 2.518136758995e+005 3.190371542775e+005 3.676696288824e+005 3.118151493024e+005 3.186138246953e+005 0.000000000000e+000 0.000000000000e+000 3.575704263474e+005 3.317662615694e+005 3.784433833924e+005 3.804985793997e+005 0.000000000000e+000 3.719187626089e+005 2.353559271566e+005 2.585908270585e+005 2.754466378853e+005 2.904998725997e+005 2.092128413542e+005 2.096120622730e+005 2.316774720650e+005 1.750019984040e+005 1.326971842781e+005 3.264871420635e+005 3.735891184667e+004 3.388368122253e+005 0.000000000000e+000 3.512462690281e+005 0.000000000000e+000 0.000000000000e+000 3.698834820606e+004 1.326324923730e+005 1.761336614013e+005 3.512621887323e+005 3.388464480557e+005 2.904728107128e+005 2.754576593320e+005 2.586010776571e+005 0.000000000000e+000 3.610038015885e+005 3.025476765007e+005 0.000000000000e+000 0.000000000000e+000 0.000000000000e+000 3.582210027619e+005 3.618586055159e+005 3.762303457673e+005 3.152058985537e+005 0.000000000000e+000 0.000000000000e+000 1.083393790805e+005 1.616195768750e+005 1.983407912313e+005 3.555686466359e+005 3.427437278347e+005 3.326627230071e+005 2.453300820533e+005 2.825146195685e+005 2.990318647303e+005 2.665744249562e+005 2.205237987546e+005 0.000000000000e+000 0.000000000000e+000 0.000000000000e+000 0.000000000000e+000 1.357073542386e+005 1.794645773398e+005 3.387536679895e+005 2.905252858580e+005 2.745390069845e+005 2.553900987435e+005 3.826974876297e+005 3.186818315533e+005 2.095458734227e+005 2.092337231370e+005 3.058850546334e+005 0.000000000000e+000 3.858973891786e+005 3.289665406407e+005 3.014540268301e+005 1.942119813174e+005 1.582436480502e+005 1.033249427376e+005 0.000000000000e+000 0.000000000000e+000 3.330763177812e+005 3.447785428797e+005 3.554930471371e+005 2.659568388650e+005 2.452886565883e+005 2.986077323759e+005 2.823957500402e+005 0.000000000000e+000 0.000000000000e+000 2.823966067186e+005 2.659403171378e+005 1.032749285472e+005 2.452915154864e+005 1.581945321842e+005 1.941338434443e+005 3.448027555670e+005 2.208270756669e+005 2.208851225861e+005 3.674580136190e+005 3.225474316577e+005 3.696776015596e+005 2.994260853031e+005 3.159963969057e+005 0.000000000000e+000 0.000000000000e+000 3.110257606138e+005 3.075367828786e+005 3.156264767868e+005 2.049957459960e+005 2.358341350304e+005 2.317905259511e+005 2.123368658768e+005 2.519160554190e+005 2.703912788788e+005 2.896674793591e+005 1.823914997585e+005 3.489543655393e+005 3.380559751157e+005 0.000000000000e+000 6.863417329858e+004 1.415699985243e+005 0.000000000000e+000 3.489520284369e+005 6.869450741940e+004 3.380530974713e+005 2.896685792720e+005 2.703712254052e+005 2.522991815477e+005 1.415756996217e+005 1.823961517097e+005 3.827927734001e+005 3.761063928508e+005 0.000000000000e+000 3.827853619860e+005 2.351884019792e+005 2.352822238400e+005 3.492378209741e+005 3.492419620777e+005 4.979770817469e+004 5.027499807911e+004 0.000000000000e+000 3.718224202208e+005 3.783448205278e+005 3.609867741618e+005 3.699301777957e+005 0.000000000000e+000 3.859009343964e+005 0.000000000000e+000 3.858987591915e+005 3.739450789810e+005 0.000000000000e+000 0.000000000000e+000 1.797643508170e+005 1.352262973654e+005 3.386778748137e+005 2.554808071361e+005 2.907312182968e+005 2.748958554478e+005 0.000000000000e+000 3.652848869127e+005 3.652430384528e+005 3.762458190337e+005 3.068765549883e+005 3.256960439869e+005 3.762655926410e+005 3.616013673967e+005 3.553905489164e+005 3.217959932984e+005 3.647353124832e+005 0.000000000000e+000 0.000000000000e+000 3.247263251156e+005 3.072859678641e+005 0.000000000000e+000 3.265978833836e+005 3.071458960647e+005 3.111008892344e+005 0.000000000000e+000 3.578472404287e+005 0.000000000000e+000 2.860906935114e+005 2.692816586817e+005 2.521532696965e+005 2.132803061299e+005 3.425789443061e+005 1.169931877974e+005 3.316928478693e+005 1.691425392921e+005 2.054700236701e+005 0.000000000000e+000 3.677212178322e+005 3.119032993219e+005 3.184761596277e+005 3.264448597323e+005 3.720567610810e+005 0.000000000000e+000 3.859025017103e+005 0.000000000000e+000 3.860422635709e+005 3.784813732303e+005 3.613628958512e+005 3.162849968683e+005 3.217795638175e+005 0.000000000000e+000 3.333282621706e+005 2.982159289901e+005 3.652536789122e+005 3.068049101424e+005 3.697870921214e+005 1.907153401446e+005 1.506850083845e+005 8.784243333036e+004 3.335669840950e+005 3.455130298869e+005 7.580607638778e+004 0.000000000000e+000 1.447661185696e+005 1.113883076995e+004 1.869725311434e+005 3.485686515820e+005 3.353743636282e+005 3.511699763609e+005 2.936229760801e+005 2.596225654195e+005 2.759065037949e+005 2.390390730386e+005 0.000000000000e+000 0.000000000000e+000 3.519746972586e+005 2.278248638163e+005 2.942069578181e+005 2.793012888367e+005 2.599142956288e+005 2.436175464155e+005 2.282775933452e+005 2.208604472474e+005 2.452812873457e+005 2.823961085139e+005 2.659664202148e+005 2.986112427233e+005 0.000000000000e+000 0.000000000000e+000 1.032336152072e+005 1.941536627145e+005 1.581572175386e+005 3.554859417622e+005 3.448025272533e+005 3.331050189560e+005 3.257534890286e+005 3.617425446813e+005 0.000000000000e+000 3.784751511187e+005 2.284189590138e+005 2.389047508399e+005 2.595219244782e+005 2.783259716754e+005 2.935097380690e+005 1.650434626791e+004 0.000000000000e+000 3.510714661656e+005 7.412008382545e+004 1.446315788708e+005 1.868273674065e+005 3.487616952282e+005 3.354171141853e+005 3.158573640316e+005 0.000000000000e+000 3.187463224068e+005 0.000000000000e+000 2.240140077783e+005 2.207564769038e+005 2.450767905953e+005 2.656440160956e+005 2.821632663960e+005 2.982884924590e+005 0.000000000000e+000 0.000000000000e+000 1.046305847137e+005 1.619926557166e+005 1.937051602751e+005 3.446913603100e+005 1.942737706366e+005 2.822684472799e+005 2.636028965985e+005 2.451304062773e+005 1.582917422202e+005 1.033688367505e+005 3.330417895440e+005 0.000000000000e+000 3.447564728378e+005 0.000000000000e+000 3.554899677523e+005 3.699184660163e+005 0.000000000000e+000 3.550958771082e+005 0.000000000000e+000 2.792279209142e+005 2.442542136244e+005 2.625958291183e+005 2.946624565662e+005 3.447243978489e+005 9.414927024041e+004 3.330335664498e+005 1.540122175515e+005 1.904653205277e+005 2.242756625798e+005 3.783835481708e+005 0.000000000000e+000 3.859023209640e+005 0.000000000000e+000 0.000000000000e+000 0.000000000000e+000 3.189046911484e+005 3.120631184001e+005 3.654017094457e+005 3.554270336473e+005 0.000000000000e+000 3.779912814288e+005 0.000000000000e+000 0.000000000000e+000 3.615154326647e+005 2.055412835141e+005 1.728197526360e+005 3.290565516783e+005 1.268548382001e+005 3.419731286332e+005 2.520639725815e+005 2.692727433664e+005 2.860192164527e+005 2.132962822421e+005 0.000000000000e+000 3.581045858348e+005 0.000000000000e+000 3.264601451320e+005 3.059537654697e+005 3.191584421449e+005 3.740689231350e+005 3.762267072485e+005 0.000000000000e+000 3.825056014133e+005 0.000000000000e+000 3.825056822523e+005 2.981643196772e+005 3.333109943789e+005 3.014657092331e+005 3.719488221288e+005 0.000000000000e+000 3.827067718419e+005 3.221549419418e+005 3.114885470387e+005 3.192612297526e+005 3.654242073272e+005 3.739665693845e+005 3.697659170517e+005 3.294736731089e+005 3.739724455306e+005 3.677657775225e+005 3.190503654765e+005 3.763407011007e+005 3.741552637990e+005 3.157458103134e+005 3.251214484608e+005 3.113101513841e+005 3.218714820685e+005 0.000000000000e+000 3.802722718230e+005 3.579668512164e+005 2.204587047541e+005 2.124063178288e+005 0.000000000000e+000 0.000000000000e+000 0.000000000000e+000 0.000000000000e+000 1.234378671275e+005 1.727640880511e+005 3.419895779414e+005 1.977667423191e+005 2.049323099742e+005 2.990381150989e+005 3.015888240671e+005 2.852583241535e+005 2.896023095366e+005 2.702970528547e+005 2.661541140944e+005 2.485441495536e+005 2.526108157853e+005 3.805329289500e+005 0.000000000000e+000 0.000000000000e+000 0.000000000000e+000 0.000000000000e+000 3.828186527278e+005 0.000000000000e+000 2.394810142405e+005 2.597026873634e+005 2.791035002564e+005 2.934452355310e+005 2.279935372799e+005 2.162387166876e+005 2.021295537126e+005 1.693030324285e+005 3.292387275577e+005 1.177941791823e+005 3.425168638273e+005 0.000000000000e+000 3.519431251294e+005 0.000000000000e+000 0.000000000000e+000 0.000000000000e+000 0.000000000000e+000 1.178157828306e+005 1.69301