<?xml version="1.0"?>
<VTKFile type="UnstructuredGrid" version="0.1" byte_order="LittleEndian">
  <UnstructuredGrid>
    <Piece NumberOfPoints="2604" NumberOfCells="4910">
      <Points>
        <DataArray type="Float64" NumberOfComponents="3" format="ascii">
          0.000000000000e+000 0.000000000000e+000 0.000000000000e+000
          2.000000000000e+002 0.000000000000e+000 0.000000000000e+000
          2.000000000000e+002 2.000000000000e+001 0.000000000000e+000
          0.000000000000e+000 2.000000000000e+001 0.000000000000e+000
          1.492537313427e+000 0.000000000000e+000 0.000000000000e+000
          2.985074626854e+000 0.000000000000e+000 0.000000000000e+000
          4.477611940281e+000 0.000000000000e+000 0.000000000000e+000
          5.970149253708e+000 0.000000000000e+000 0.000000000000e+000
          7.462686567135e+000 0.000000000000e+000 0.000000000000e+000
          8.955223880561e+000 0.000000000000e+000 0.000000000000e+000
          1.044776119399e+001 0.000000000000e+000 0.000000000000e+000
          1.194029850741e+001 0.000000000000e+000 0.000000000000e+000
          1.343283582084e+001 0.000000000000e+000 0.000000000000e+000
          1.492537313427e+001 0.000000000000e+000 0.000000000000e+000
          1.641791044770e+001 0.000000000000e+000 0.000000000000e+000
          1.791044776112e+001 0.000000000000e+000 0.000000000000e+000
          1.940298507455e+001 0.000000000000e+000 0.000000000000e+000
          2.089552238798e+001 0.000000000000e+000 0.000000000000e+000
          2.238805970141e+001 0.000000000000e+000 0.000000000000e+000
          2.388059701484e+001 0.000000000000e+000 0.000000000000e+000
          2.537313432826e+001 0.000000000000e+000 0.000000000000e+000
          2.686567164169e+001 0.000000000000e+000 0.000000000000e+000
          2.835820895511e+001 0.000000000000e+000 0.000000000000e+000
          2.985074626854e+001 0.000000000000e+000 0.000000000000e+000
          3.134328358196e+001 0.000000000000e+000 0.000000000000e+000
          3.283582089539e+001 0.000000000000e+000 0.000000000000e+000
          3.432835820881e+001 0.000000000000e+000 0.000000000000e+000
          3.582089552224e+001 0.000000000000e+000 0.000000000000e+000
          3.731343283566e+001 0.000000000000e+000 0.000000000000e+000
          3.880597014909e+001 0.000000000000e+000 0.000000000000e+000
          4.029850746251e+001 0.000000000000e+000 0.000000000000e+000
          4.179104477594e+001 0.000000000000e+000 0.000000000000e+000
          4.328358208936e+001 0.000000000000e+000 0.000000000000e+000
          4.477611940279e+001 0.000000000000e+000 0.000000000000e+000
          4.626865671621e+001 0.000000000000e+000 0.000000000000e+000
          4.776119402964e+001 0.000000000000e+000 0.000000000000e+000
          4.925373134306e+001 0.000000000000e+000 0.000000000000e+000
          5.074626865649e+001 0.000000000000e+000 0.000000000000e+000
          5.223880596991e+001 0.000000000000e+000 0.000000000000e+000
          5.373134328334e+001 0.000000000000e+000 0.000000000000e+000
          5.522388059676e+001 0.000000000000e+000 0.000000000000e+000
          5.671641791019e+001 0.000000000000e+000 0.000000000000e+000
          5.820895522361e+001 0.000000000000e+000 0.000000000000e+000
          5.970149253704e+001 0.000000000000e+000 0.000000000000e+000
          6.119402985046e+001 0.000000000000e+000 0.000000000000e+000
          6.268656716389e+001 0.000000000000e+000 0.000000000000e+000
          6.417910447732e+001 0.000000000000e+000 0.000000000000e+000
          6.567164179075e+001 0.000000000000e+000 0.000000000000e+000
          6.716417910418e+001 0.000000000000e+000 0.000000000000e+000
          6.865671641761e+001 0.000000000000e+000 0.000000000000e+000
          7.014925373104e+001 0.000000000000e+000 0.000000000000e+000
          7.164179104447e+001 0.000000000000e+000 0.000000000000e+000
          7.313432835790e+001 0.000000000000e+000 0.000000000000e+000
          7.462686567133e+001 0.000000000000e+000 0.000000000000e+000
          7.611940298476e+001 0.000000000000e+000 0.000000000000e+000
          7.761194029819e+001 0.000000000000e+000 0.000000000000e+000
          7.910447761162e+001 0.000000000000e+000 0.000000000000e+000
          8.059701492505e+001 0.000000000000e+000 0.000000000000e+000
          8.208955223848e+001 0.000000000000e+000 0.000000000000e+000
          8.358208955191e+001 0.000000000000e+000 0.000000000000e+000
          8.507462686534e+001 0.000000000000e+000 0.000000000000e+000
          8.656716417877e+001 0.000000000000e+000 0.000000000000e+000
          8.805970149220e+001 0.000000000000e+000 0.000000000000e+000
          8.955223880563e+001 0.000000000000e+000 0.000000000000e+000
          9.104477611907e+001 0.000000000000e+000 0.000000000000e+000
          9.253731343250e+001 0.000000000000e+000 0.000000000000e+000
          9.402985074593e+001 0.000000000000e+000 0.000000000000e+000
          9.552238805936e+001 0.000000000000e+000 0.000000000000e+000
          9.701492537279e+001 0.000000000000e+000 0.000000000000e+000
          9.850746268622e+001 0.000000000000e+000 0.000000000000e+000
          9.999999999965e+001 0.000000000000e+000 0.000000000000e+000
          1.014925373131e+002 0.000000000000e+000 0.000000000000e+000
          1.029850746265e+002 0.000000000000e+000 0.000000000000e+000
          1.044776119399e+002 0.000000000000e+000 0.000000000000e+000
          1.059701492534e+002 0.000000000000e+000 0.000000000000e+000
          1.074626865668e+002 0.000000000000e+000 0.000000000000e+000
          1.089552238802e+002 0.000000000000e+000 0.000000000000e+000
          1.104477611937e+002 0.000000000000e+000 0.000000000000e+000
          1.119402985071e+002 0.000000000000e+000 0.000000000000e+000
          1.134328358205e+002 0.000000000000e+000 0.000000000000e+000
          1.149253731340e+002 0.000000000000e+000 0.000000000000e+000
          1.164179104474e+002 0.000000000000e+000 0.000000000000e+000
          1.179104477608e+002 0.000000000000e+000 0.000000000000e+000
          1.194029850742e+002 0.000000000000e+000 0.000000000000e+000
          1.208955223877e+002 0.000000000000e+000 0.000000000000e+000
          1.223880597011e+002 0.000000000000e+000 0.000000000000e+000
          1.238805970145e+002 0.000000000000e+000 0.000000000000e+000
          1.253731343280e+002 0.000000000000e+000 0.000000000000e+000
          1.268656716414e+002 0.000000000000e+000 0.000000000000e+000
          1.283582089548e+002 0.000000000000e+000 0.000000000000e+000
          1.298507462683e+002 0.000000000000e+000 0.000000000000e+000
          1.313432835817e+002 0.000000000000e+000 0.000000000000e+000
          1.328358208952e+002 0.000000000000e+000 0.000000000000e+000
          1.343283582086e+002 0.000000000000e+000 0.000000000000e+000
          1.358208955220e+002 0.000000000000e+000 0.000000000000e+000
          1.373134328355e+002 0.000000000000e+000 0.000000000000e+000
          1.388059701489e+002 0.000000000000e+000 0.000000000000e+000
          1.402985074624e+002 0.000000000000e+000 0.000000000000e+000
          1.417910447758e+002 0.000000000000e+000 0.000000000000e+000
          1.432835820892e+002 0.000000000000e+000 0.000000000000e+000
          1.447761194027e+002 0.000000000000e+000 0.000000000000e+000
          1.462686567161e+002 0.000000000000e+000 0.000000000000e+000
          1.477611940296e+002 0.000000000000e+000 0.000000000000e+000
          1.492537313430e+002 0.000000000000e+000 0.000000000000e+000
          1.507462686564e+002 0.000000000000e+000 0.000000000000e+000
          1.522388059699e+002 0.000000000000e+000 0.000000000000e+000
          1.537313432833e+002 0.000000000000e+000 0.000000000000e+000
          1.552238805968e+002 0.000000000000e+000 0.000000000000e+000
          1.567164179102e+002 0.000000000000e+000 0.000000000000e+000
          1.582089552237e+002 0.000000000000e+000 0.000000000000e+000
          1.597014925371e+002 0.000000000000e+000 0.000000000000e+000
          1.611940298505e+002 0.000000000000e+000 0.000000000000e+000
          1.626865671640e+002 0.000000000000e+000 0.000000000000e+000
          1.641791044774e+002 0.000000000000e+000 0.000000000000e+000
          1.656716417909e+002 0.000000000000e+000 0.000000000000e+000
          1.671641791043e+002 0.000000000000e+000 0.000000000000e+000
          1.686567164177e+002 0.000000000000e+000 0.000000000000e+000
          1.701492537312e+002 0.000000000000e+000 0.000000000000e+000
          1.716417910446e+002 0.000000000000e+000 0.000000000000e+000
          1.731343283581e+002 0.000000000000e+000 0.000000000000e+000
          1.746268656715e+002 0.000000000000e+000 0.000000000000e+000
          1.761194029849e+002 0.000000000000e+000 0.000000000000e+000
          1.776119402984e+002 0.000000000000e+000 0.000000000000e+000
          1.791044776118e+002 0.000000000000e+000 0.000000000000e+000
          1.805970149253e+002 0.000000000000e+000 0.000000000000e+000
          1.820895522387e+002 0.000000000000e+000 0.000000000000e+000
          1.835820895521e+002 0.000000000000e+000 0.000000000000e+000
          1.850746268656e+002 0.000000000000e+000 0.000000000000e+000
          1.865671641790e+002 0.000000000000e+000 0.000000000000e+000
          1.880597014925e+002 0.000000000000e+000 0.000000000000e+000
          1.895522388059e+002 0.000000000000e+000 0.000000000000e+000
          1.910447761194e+002 0.000000000000e+000 0.000000000000e+000
          1.925373134328e+002 0.000000000000e+000 0.000000000000e+000
          1.940298507462e+002 0.000000000000e+000 0.000000000000e+000
          1.955223880597e+002 0.000000000000e+000 0.000000000000e+000
          1.970149253731e+002 0.000000000000e+000 0.000000000000e+000
          1.985074626866e+002 0.000000000000e+000 0.000000000000e+000
          2.000000000000e+002 1.428571428570e+000 0.000000000000e+000
          2.000000000000e+002 2.857142857140e+000 0.000000000000e+000
[...]
      <PointData Scalars="Capillary_Pressure">
        <DataArray type="Float64" Name="Capillary_Pressure" format="ascii">
          3.691969992633e+005 0.000000000000e+000 0.000000000000e+000 3.692019288738e+005 3.694534612338e+005 3.665353525818e+005 3.656575053931e+005 3.636287800602e+005 3.633555433631e+005 3.613710903218e+005 3.592676920091e+005 3.592042326011e+005 3.569640903629e+005 3.568433120310e+005 3.549444271255e+005 3.524815159737e+005 3.525580725637e+005 3.505007412053e+005 3.501458480537e+005 3.479882701073e+005 3.444687091626e+005 3.443622137284e+005 3.438519790997e+005 3.407629509829e+005 3.405228768865e+005 3.383121199467e+005 3.377759238674e+005 3.345595118904e+005 3.341692635785e+005 3.321038474560e+005 3.315900675594e+005 3.283174185894e+005 3.279167083621e+005 3.259644080610e+005 3.253722513212e+005 3.216707847773e+005 3.217901228961e+005 3.191992433792e+005 3.168035148101e+005 3.167140730374e+005 3.160897761071e+005 3.128862387859e+005 3.103116315448e+005 3.100739026512e+005 3.064154052468e+005 3.061212003436e+005 3.033047176162e+005 3.030510615082e+005 3.006817167061e+005 2.999336481434e+005 2.958526407686e+005 2.958804670249e+005 2.920147662707e+005 2.916889437775e+005 2.877103036238e+005 2.865482275842e+005 2.844723354650e+005 2.842588146719e+005 2.833390648172e+005 2.795873382179e+005 2.763949161965e+005 2.763201097465e+005 2.723290440430e+005 2.718100836679e+005 2.690378710828e+005 2.657336205712e+005 2.628343320704e+005 2.625025504442e+005 2.579243705431e+005 2.565734645818e+005 2.540894686705e+005 2.510433698862e+005 2.505115605447e+005 2.477620605951e+005 2.441163964032e+005 2.408745404170e+005 2.406558194629e+005 2.372361795970e+005 2.341176308806e+005 2.331217564910e+005 2.273230460881e+005 2.240892733931e+005 2.211445816540e+005 2.176163764432e+005 2.142397405244e+005 2.106068720407e+005 2.102039993125e+005 2.068442973144e+005 2.030810827208e+005 1.996475257685e+005 1.923346757222e+005 1.885905771365e+005 1.847681295900e+005 1.804859916702e+005 1.780452517805e+005 1.703186099142e+005 1.658439082623e+005 1.635950491444e+005 1.551981257471e+005 1.488689952970e+005 1.459673512353e+005 1.353282277424e+005 1.285874830921e+005 1.212121562260e+005 1.118945625583e+005 1.019714146483e+005 9.093140249519e+004 7.712282654547e+004 6.135279518039e+004 4.053680583125e+004 1.188862053887e+004 0.000000000000e+000 0.000000000000e+000 0.000000000000e+000 0.000000000000e+000 0.000000000000e+000 0.000000000000e+000 0.000000000000e+000 0.000000000000e+000 0.000000000000e+000 0.000000000000e+000 0.000000000000e+000 0.000000000000e+000 0.000000000000e+000 0.000000000000e+000 0.000000000000e+000 0.000000000000e+000 0.000000000000e+000 0.000000000000e+000 0.000000000000e+000 0.000000000000e+000 0.000000000000e+000 0.000000000000e+000 0.000000000000e+000 0.000000000000e+000 0.000000000000e+000 0.000000000000e+000 0.000000000000e+000 0.000000000000e+000 0.000000000000e+000 0.000000000000e+000 0.000000000000e+000 0.000000000000e+000 0.000000000000e+000 0.000000000000e+000 0.000000000000e+000 0.000000000000e+000 0.000000000000e+000 0.000000000000e+000 0.000000000000e+000 0.000000000000e+000 0.000000000000e+000 0.000000000000e+000 0.000000000000e+000 0.000000000000e+000 0.000000000000e+000 0.000000000000e+000 0.000000000000e+000 0.000000000000e+000 0.000000000000e+000 0.000000000000e+000 0.000000000000e+000 0.000000000000e+000 0.000000000000e+000 0.000000000000e+000 0.000000000000e+000 0.000000000000e+000 0.000000000000e+000 0.000000000000e+000 0.000000000000e+000 0.000000000000e+000 0.000000000000e+000 0.000000000000e+000 0.000000000000e+000 0.000000000000e+000 0.000000000000e+000 1.187413387099e+004 4.048911309265e+004 6.133854223519e+004 7.711405446851e+004 9.093422243140e+004 1.020009915795e+005 1.118871199174e+005 1.212135127442e+005 1.285797272391e+005 1.353143308525e+005 1.459661938179e+005 1.488593769117e+005 1.551758574993e+005 1.635833876198e+005 1.658363485710e+005 1.703246448081e+005 1.780352722094e+005 1.804769411583e+005 1.847604135096e+005 1.885600253166e+005 1.923320924161e+005 1.996641606044e+005 2.030793023167e+005 2.068402532355e+005 2.101938833947e+005 2.106138910385e+005 2.142458168851e+005 2.176456098695e+005 2.211495201277e+005 2.240972084369e+005 2.272995649084e+005 2.330989863144e+005 2.341156344908e+005 2.372600062571e+005 2.406433420916e+005 2.408602712503e+005 2.441102975632e+005 2.477515713313e+005 2.505263978785e+005 2.537277304947e+005 2.540915518523e+005 2.565687001981e+005 2.578883230727e+005 2.625163337098e+005 2.655788636830e+005 2.657610719010e+005 2.689494949335e+005 2.718308357666e+005 2.723477321638e+005 2.763093337311e+005 2.764041436720e+005 2.796329094710e+005 2.833367681073e+005 2.842601369630e+005 2.845010135013e+005 2.865559834662e+005 2.909400362129e+005 2.917055065371e+005 2.920060669526e+005 2.958991667147e+005 2.958954563455e+005 2.999254826073e+005 3.006486514242e+005 3.030380090761e+005 3.032798948750e+005 3.060929173620e+005 3.093844021903e+005 3.100705244585e+005 3.102654027335e+005 3.128969122637e+005 3.160691743919e+005 3.167284354218e+005 3.167872923261e+005 3.191825750657e+005 3.218019807499e+005 3.216644323740e+005 3.253751161367e+005 3.259574233790e+005 3.279141339310e+005 3.283170914913e+005 3.315904877949e+005 3.321017597985e+005 3.341693721812e+005 3.345481927799e+005 3.377848852065e+005 3.383025736674e+005 3.405166771719e+005 3.407694380508e+005 3.438556242002e+005 3.443535525118e+005 3.444692616967e+005 3.479790686720e+005 3.501404768690e+005 3.504933442343e+005 3.525635286409e+005 3.524861305074e+005 3.548351556247e+005 3.548758870944e+005 3.569622964211e+005 3.592223567406e+005 3.592334735092e+005 3.613900418163e+005 3.633578971420e+005 3.636376476504e+005 3.656172685335e+005 3.665440459383e+005 3.694507161059e+005 3.692042394213e+005 3.692029216516e+005 3.692027776449e+005 3.692027359402e+005 3.691974738591e+005 3.692002195377e+005 3.692009052011e+005 3.691969305150e+005 3.692001740261e+005 3.692059624173e+005 3.691980696714e+005 3.692011314431e+005 3.692004578559e+005 0.000000000000e+000 3.613733390764e+005 0.000000000000e+000 0.000000000000e+000 2.905280560883e+004 1.252983923902e+005 1.705364551106e+005 3.441850566120e+005 1.990929955616e+005 3.320799819509e+005 3.219973050280e+005 3.102772925957e+005 2.914444258061e+005 2.768453080659e+005 2.621091698323e+005 2.439002403335e+005 2.246200722717e+005 3.527257298359e+005 3.006573987207e+005 2.106023780369e+005 2.138014106270e+005 2.340943162614e+005 2.537942068978e+005 2.689273260958e+005 2.842666538218e+005 0.000000000000e+000 0.000000000000e+000 8.958199383382e+004 2.842574296419e+005 2.691214560559e+005 2.536105456276e+005 2.336490200652e+005 1.487095228649e+005 1.847289269026e+005 3.383159094726e+005 3.279667924486e+005 3.166661106034e+005 1.847473388445e+005 1.488516804554e+005 9.090666869949e+004 0.000000000000e+000 0.000000000000e+000 3.167478756002e+005 3.279182463379e+005 3.383016458477e+005 0.000000000000e+000 0.000000000000e+000 3.033710530036e+005 2.962908036956e+005 3.568143371718e+005 3.479567569464e+005 0.000000000000e+000 3.636276064604e+005 0.000000000000e+000 3.636434120537e+005 3.565663806662e+005 3.480062947956e+005 3.062130979404e+005 2.956794568460e+005 0.000000000000e+000 2.246452013104e+005 0.000000000000e+000 2.438897810923e+005 2.621116351174e+005 2.768393257141e+005 2.911128109375e+005 1.991175201962e+005 2.686402747677e+004 1.243865135028e+005 1.705522423985e+005 3.320966548172e+005 3.220355916251e+005 2.001137894788e+005 1.706699751016e+005 1.252425447769e+005 2.757869416060e+004 2.768512729289e+005 2.621020174845e+005 2.439098967598e+005 0.000000000000e+000 2.245845118205e+005 0.000000000000e+000 3.103293325902e+005 3.219887921165e+005 3.320897308507e+005 3.441953322979e+005 0.000000000000e+000 0.000000000000e+000 3.592378315196e+005 3.438579635644e+005 2.875752437249e+005 3.125168442880e+005 0.000000000000e+000 3.656794949633e+005 3.527154871359e+005 3.613341176954e+005 3.527407868169e+005 3.005239996683e+005 3.060054089793e+005 2.960773664170e+005 3.569816304060e+005 3.479598090254e+005 3.006492464245e+005 0.000000000000e+000 7.942148545071e+004 0.000000000000e+000 1.460493732543e+005 0.000000000000e+000 1.808952124891e+005 2.332021606085e+005 2.659947486624e+005 2.802752429214e+005 2.506659293848e+005 3.377938779617e+005 3.167558147266e+005 3.278118370359e+005 2.141525091804e+005 3.006935012304e+005 0.000000000000e+000 3.665279675206e+005 0.000000000000e+000 3.665278919645e+005 2.286034844260e+005 2.475769297023e+005 2.660320866149e+005 2.798945008726e+005 1.925847895554e+005 2.176580378254e+005 2.066808985920e+005 1.600924084505e+005 3.130041762210e+005 1.058345946071e+005 3.258053623102e+005 0.000000000000e+000 3.347831835647e+005 0.000000000000e+000 0.000000000000e+000 0.000000000000e+000 0.000000000000e+000 0.000000000000e+000 1.067138582987e+005 7.231219988323e+004 1.602084959465e+005 1.424931622061e+005 3.347399144610e+005 1.815181460973e+005 1.925913643235e+005 3.257743876561e+005 3.284386553609e+005 2.798347680494e+005 2.660290657373e+005 2.475963686636e+005 2.720769604793e+005 2.543597113923e+005 2.328102969618e+005 2.367142013289e+005 3.168410355867e+005 2.067016278555e+005 2.174749124444e+005 0.000000000000e+000 3.406610208727e+005 0.000000000000e+000 3.283836084599e+005 7.467654884830e+004 3.169154163874e+005 1.418028528578e+005 2.868915766977e+005 2.721995004538e+005 2.544773822292e+005 2.400806278460e+005 1.816786860689e+005 3.526978476905e+005 0.000000000000e+000 0.000000000000e+000 2.955625409356e+005 3.089039618864e+005 3.478314195707e+005 2.067721451309e+005 2.543657778663e+005 2.366294500622e+005 2.720114200712e+005 2.868806510916e+005 3.406385135598e+005 3.258251953590e+005 0.000000000000e+000 3.129865645209e+005 0.000000000000e+000 1.075345165529e+005 1.925073783334e+005 1.560253182889e+005 3.405154083729e+005 0.000000000000e+000 0.000000000000e+000 2.995713785606e+005 3.569668323761e+005 0.000000000000e+000 2.067264339129e+005 1.959618056225e+005 1.636805833766e+005 3.127290580271e+005 1.127087682393e+005 3.253191653060e+005 2.723600874370e+005 2.565552567378e+005 2.407316021494e+005 0.000000000000e+000 3.407629476229e+005 0.000000000000e+000 3.502900378485e+005 2.870460026509e+005 0.000000000000e+000 0.000000000000e+000 0.000000000000e+000 2.844010273823e+005 3.161020417638e+005 2.919744393799e+005 3.094506843073e+005 3.633774780560e+005 3.444374764490e+005 3.591785983100e+005 3.548093584911e+005 3.444301634149e+005 2.272879620662e+005 2.477544531427e+005 2.656134178987e+005 2.796208275208e+005 0.000000000000e+000 3.345524284352e+005 0.000000000000e+000 2.176933147981e+005 1.780769469824e+005 0.000000000000e+000 1.352212949484e+005 0.000000000000e+000 6.133420342154e+004 2.279167282863e+005 2.477943138697e+005 2.655782038153e+005 2.795972632246e+005 3.344744930734e+005 3.191539730652e+005 3.315958981471e+005 3.315896501871e+005 6.030719416852e+004 3.186849831003e+005 1.352452108158e+005 1.779944690410e+005 2.176722962581e+005 0.000000000000e+000 0.000000000000e+000 3.665304137845e+005 3.665445210118e+005 0.000000000000e+000 3.629044878765e+005 0.000000000000e+000 0.000000000000e+000 3.614139820141e+005 0.000000000000e+000 3.591702833021e+005 3.629089970200e+005 3.096428869339e+005 2.914090659415e+005 3.438771729193e+005 3.590878440095e+005 3.101164428833e+005 3.503825903166e+005 3.505245803711e+005 2.916292066956e+005 3.547047768751e+005 3.059209304265e+005 2.996571337838e+005 3.548474323023e+005 3.256290629782e+005 1.919839010290e+005 1.592887722418e+005 1.097177195162e+005 0.000000000000e+000 0.000000000000e+000 2.070550504214e+005 2.870881620527e+005 2.717702122274e+005 2.571790203132e+005 2.404408822157e+005 3.033531188429e+005 3.504644082638e+005 2.964023773654e+005 3.028196664643e+005 0.000000000000e+000 0.000000000000e+000 3.403244662539e+005 3.156712473109e+005 3.614376454322e+005 3.635833246622e+005 0.000000000000e+000 3.547542635033e+005 2.245287274478e+005 2.468412105986e+005 2.625242671546e+005 2.763975274846e+005 1.996795452626e+005 1.997982135315e+005 2.210190586693e+005 1.657925584579e+005 1.227319974923e+005 3.102995982588e+005 9.948634898640e+003 3.220520951003e+005 0.000000000000e+000 3.341941059004e+005 0.000000000000e+000 0.000000000000e+000 9.453429995613e+003 1.226760978400e+005 1.670380513739e+005 3.342160068515e+005 3.220565117531e+005 2.763870150787e+005 2.625500817046e+005 2.468776749597e+005 0.000000000000e+000 3.438433353936e+005 2.876514774540e+005 0.000000000000e+000 0.000000000000e+000 0.000000000000e+000 3.409029577873e+005 3.445435543752e+005 3.591575779463e+005 2.998880093975e+005 0.000000000000e+000 0.000000000000e+000 9.646068413384e+004 1.523547153735e+005 1.890119838810e+005 3.383253929449e+005 3.258290953448e+005 3.163745683827e+005 2.339647033562e+005 2.690520453309e+005 2.845650782112e+005 2.541972445679e+005 2.104812349509e+005 0.000000000000e+000 0.000000000000e+000 0.000000000000e+000 0.000000000000e+000 1.258845176131e+005 1.704568068674e+005 3.220640676824e+005 2.767530711098e+005 2.618571051462e+005 2.437388327816e+005 3.659142833112e+005 3.031452095176e+005 1.999385798115e+005 1.994143739176e+005 2.911228610056e+005 0.000000000000e+000 3.692969910460e+005 3.127547753644e+005 2.866937581061e+005 1.848085541882e+005 1.489140685242e+005 9.094506996709e+004 0.000000000000e+000 0.000000000000e+000 3.167108019823e+005 3.278929911819e+005 3.383073827290e+005 2.537222353101e+005 2.341235483296e+005 2.842633198870e+005 2.690182301250e+005 0.000000000000e+000 0.000000000000e+000 2.689706406409e+005 2.536944086004e+005 9.090639179461e+004 2.341269464955e+005 1.488739379208e+005 1.847421390428e+005 3.279062102169e+005 2.105672564740e+005 2.106145435873e+005 3.502348770522e+005 3.065219576658e+005 3.525294168812e+005 2.847528149424e+005 3.005319332813e+005 0.000000000000e+000 0.000000000000e+000 2.958604322080e+005 2.923298182150e+005 3.002360109507e+005 1.953237269034e+005 2.249810301506e+005 2.212873922860e+005 2.024443212008e+005 2.402325067564e+005 2.576223761646e+005 2.759999920496e+005 1.731463156641e+005 3.319578305704e+005 3.215183853664e+005 0.000000000000e+000 5.041264462419e+004 1.318441419844e+005 0.000000000000e+000 3.319524045354e+005 5.048465289725e+004 3.215050550747e+005 2.759745187643e+005 2.575831772368e+005 2.406028159275e+005 1.318523573313e+005 1.731626725198e+005 3.660048591598e+005 3.590440206883e+005 0.000000000000e+000 3.660048654959e+005 2.246294101893e+005 2.246558644608e+005 3.320952337988e+005 3.321137622986e+005 2.626019376524e+004 2.689180334672e+004 0.000000000000e+000 3.546599726819e+005 3.613585760577e+005 3.438362335687e+005 3.527616511996e+005 0.000000000000e+000 3.692904766341e+005 0.000000000000e+000 3.692922994555e+005 3.568117137406e+005 0.000000000000e+000 0.000000000000e+000 1.706951310978e+005 1.252614922240e+005 3.220131898875e+005 2.437544621823e+005 2.768714844188e+005 2.621422400502e+005 0.000000000000e+000 3.480614256118e+005 3.480296921817e+005 3.591742910895e+005 2.918881999108e+005 3.097600569188e+005 3.592082127382e+005 3.443168604418e+005 3.382282256039e+005 3.060127323110e+005 3.475703497066e+005 0.000000000000e+000 0.000000000000e+000 3.089199131386e+005 2.921447948261e+005 0.000000000000e+000 3.104100650134e+005 2.920186659875e+005 2.959495167107e+005 0.000000000000e+000 3.406598011022e+005 0.000000000000e+000 2.723479634679e+005 2.565489838162e+005 2.407188053089e+005 2.034114795490e+005 3.257848117365e+005 1.058949725367e+005 3.155113533737e+005 1.601426388709e+005 1.960101439691e+005 0.000000000000e+000 3.505322176458e+005 2.964726399623e+005 3.028896339542e+005 3.103450108825e+005 3.548343655777e+005 0.000000000000e+000 3.692833853178e+005 0.000000000000e+000 3.694385963002e+005 3.614725980500e+005 3.441808562322e+005 3.007262446937e+005 3.060265367925e+005 0.000000000000e+000 3.168823546286e+005 2.839460847049e+005 3.480440222416e+005 2.918512662564e+005 3.526800631387e+005 1.815903016719e+005 1.412513750864e+005 7.339829258761e+004 3.169239531639e+005 3.284587181237e+005 5.916363741481e+004 0.000000000000e+000 1.351521747647e+005 0.000000000000e+000 1.778954120589e+005 3.316308089675e+005 3.186888068737e+005 3.339572547326e+005 2.795688428394e+005 2.477430856065e+005 2.627839131883e+005 2.281874418815e+005 0.000000000000e+000 0.000000000000e+000 3.347414568853e+005 2.175445882164e+005 2.799580798191e+005 2.660915640980e+005 2.476373908502e+005 2.328229933972e+005 2.176865749213e+005 2.105974275726e+005 2.341164283037e+005 2.690561494290e+005 2.537900692138e+005 2.842609806755e+005 0.000000000000e+000 0.000000000000e+000 9.087413646569e+004 1.847191885718e+005 1.488249935337e+005 3.383045620462e+005 3.278950657442e+005 3.167195038129e+005 3.097828727205e+005 3.444508097381e+005 0.000000000000e+000 3.614748113043e+005 2.178550304327e+005 2.280536585971e+005 2.476524517700e+005 2.653764955752e+005 2.794903576372e+005 0.000000000000e+000 0.000000000000e+000 3.338745310600e+005 5.711422048113e+004 1.350462966280e+005 1.777584599016e+005 3.318071961315e+005 3.187512790851e+005 3.001575374192e+005 0.000000000000e+000 3.031631178444e+005 0.000000000000e+000 2.139168634449e+005 2.105437946772e+005 2.339750207269e+005 2.534314092599e+005 2.688041451071e+005 2.840146794866e+005 0.000000000000e+000 0.000000000000e+000 9.237189164075e+004 1.529216468750e+005 1.843305673718e+005 3.278360263245e+005 1.847892683400e+005 2.689448212667e+005 2.511004858089e+005 2.339983306731e+005 1.489520466370e+005 9.097773107979e+004 3.166904400911e+005 0.000000000000e+000 3.278773113878e+005 0.000000000000e+000 3.383062925907e+005 3.527135448044e+005 0.000000000000e+000 3.379917208271e+005 0.000000000000e+000 2.659699452372e+005 2.332476155830e+005 2.504376465679e+005 2.802459877856e+005 3.277407535603e+005 8.063257758005e+004 3.164368538504e+005 1.446520822272e+005 1.810612465854e+005 2.139489560340e+005 3.614002295364e+005 0.000000000000e+000 3.692911436501e+005 0.000000000000e+000 0.000000000000e+000 0.000000000000e+000 3.032989429453e+005 2.965840531561e+005 3.481677635642e+005 3.382597332395e+005 0.000000000000e+000 3.609852524852e+005 0.000000000000e+000 0.000000000000e+000 3.442972796001e+005 1.960571350031e+005 1.637871870020e+005 3.128532629250e+005 1.166178346551e+005 3.253000449168e+005 2.406394702949e+005 2.565677692348e+005 2.723217197708e+005 2.033777704598e+005 0.000000000000e+000 3.408264634713e+005 0.000000000000e+000 3.103460927421e+005 2.911728504298e+005 3.033103730267e+005 3.569412582715e+005 3.591663266252e+005 0.000000000000e+000 3.657042765067e+005 0.000000000000e+000 3.657052948158e+005 2.839112968509e+005 3.168720189209e+005 2.866764581906e+005 3.547938981034e+005 0.000000000000e+000 3.659095944575e+005 3.062686278819e+005 2.962540074589e+005 3.033995843163e+005 3.481711422988e+005 3.568525013583e+005 3.525379117245e+005 3.130683274979e+005 3.568500809533e+005 3.505569274084e+005 3.034065494442e+005 3.592605208255e+005 3.570122820123e+005 3.003292279175e+005 3.093013766236e+005 2.961123595489e+005 3.060658300783e+005 0.000000000000e+000 3.633645996899e+005 3.407534198790e+005 2.104779428526e+005 2.025076504179e+005 0.000000000000e+000 0.000000000000e+000 0.000000000000e+000 0.000000000000e+000 1.127912457119e+005 1.637406742584e+005 3.252967079875e+005 1.883119824197e+005 1.952997460813e+005 2.844575888584e+005 2.867926928038e+005 2.717131405616e+005 2.759663010741e+005 2.575310751873e+005 2.535727319183e+005 2.372847677095e+005 2.410540212806e+005 3.636236416374e+005 0.000000000000e+000 0.000000000000e+000 0.000000000000e+000 0.000000000000e+000 3.660322568098e+005 0.000000000000e+000 2.284469928796e+005 2.475429690476e+005 2.659664464804e+005 2.791405998504e+005 2.176637578117e+005 2.062647617831e+005 1.926850864593e+005 1.602768080167e+005 3.129160700333e+005 1.067506517430e+005 3.257335167627e+005 0.000000000000e+000 3.347134271412e+005 0.000000000000e+000 0.000000000000e+000 0.000000000000e+000 0.000000000000e+000 1.067768213298e+005 1.60278