<?xml version="1.0"?>
<VTKFile type="UnstructuredGrid" version="0.1" byte_order="LittleEndian">
  <UnstructuredGrid>
    <Piece NumberOfPoints="2604" NumberOfCells="4910">
      <Points>
        <DataArray type="Float64" NumberOfComponents="3" format="ascii">
          0.000000000000e+000 0.000000000000e+000 0.000000000000e+000
          2.000000000000e+002 0.000000000000e+000 0.000000000000e+000
          2.000000000000e+002 2.000000000000e+001 0.000000000000e+000
          0.000000000000e+000 2.000000000000e+001 0.000000000000e+000
          1.492537313427e+000 0.000000000000e+000 0.000000000000e+000
          2.985074626854e+000 0.000000000000e+000 0.000000000000e+000
          4.477611940281e+000 0.000000000000e+000 0.000000000000e+000
          5.970149253708e+000 0.000000000000e+000 0.000000000000e+000
          7.462686567135e+000 0.000000000000e+000 0.000000000000e+000
          8.955223880561e+000 0.000000000000e+000 0.000000000000e+000
          1.044776119399e+001 0.000000000000e+000 0.000000000000e+000
          1.194029850741e+001 0.000000000000e+000 0.000000000000e+000
          1.343283582084e+001 0.000000000000e+000 0.000000000000e+000
          1.492537313427e+001 0.000000000000e+000 0.000000000000e+000
          1.641791044770e+001 0.000000000000e+000 0.000000000000e+000
          1.791044776112e+001 0.000000000000e+000 0.000000000000e+000
          1.940298507455e+001 0.000000000000e+000 0.000000000000e+000
          2.089552238798e+001 0.000000000000e+000 0.000000000000e+000
          2.238805970141e+001 0.000000000000e+000 0.000000000000e+000
          2.388059701484e+001 0.000000000000e+000 0.000000000000e+000
          2.537313432826e+001 0.000000000000e+000 0.000000000000e+000
          2.686567164169e+001 0.000000000000e+000 0.000000000000e+000
          2.835820895511e+001 0.000000000000e+000 0.000000000000e+000
          2.985074626854e+001 0.000000000000e+000 0.000000000000e+000
          3.134328358196e+001 0.000000000000e+000 0.000000000000e+000
          3.283582089539e+001 0.000000000000e+000 0.000000000000e+000
          3.432835820881e+001 0.000000000000e+000 0.000000000000e+000
          3.582089552224e+001 0.000000000000e+000 0.000000000000e+000
          3.731343283566e+001 0.000000000000e+000 0.000000000000e+000
          3.880597014909e+001 0.000000000000e+000 0.000000000000e+000
          4.029850746251e+001 0.000000000000e+000 0.000000000000e+000
          4.179104477594e+001 0.000000000000e+000 0.000000000000e+000
          4.328358208936e+001 0.000000000000e+000 0.000000000000e+000
          4.477611940279e+001 0.000000000000e+000 0.000000000000e+000
          4.626865671621e+001 0.000000000000e+000 0.000000000000e+000
          4.776119402964e+001 0.000000000000e+000 0.000000000000e+000
          4.925373134306e+001 0.000000000000e+000 0.000000000000e+000
          5.074626865649e+001 0.000000000000e+000 0.000000000000e+000
          5.223880596991e+001 0.000000000000e+000 0.000000000000e+000
          5.373134328334e+001 0.000000000000e+000 0.000000000000e+000
          5.522388059676e+001 0.000000000000e+000 0.000000000000e+000
          5.671641791019e+001 0.000000000000e+000 0.000000000000e+000
          5.820895522361e+001 0.000000000000e+000 0.000000000000e+000
          5.970149253704e+001 0.000000000000e+000 0.000000000000e+000
          6.119402985046e+001 0.000000000000e+000 0.000000000000e+000
          6.268656716389e+001 0.000000000000e+000 0.000000000000e+000
          6.417910447732e+001 0.000000000000e+000 0.000000000000e+000
          6.567164179075e+001 0.000000000000e+000 0.000000000000e+000
          6.716417910418e+001 0.000000000000e+000 0.000000000000e+000
          6.865671641761e+001 0.000000000000e+000 0.000000000000e+000
          7.014925373104e+001 0.000000000000e+000 0.000000000000e+000
          7.164179104447e+001 0.000000000000e+000 0.000000000000e+000
          7.313432835790e+001 0.000000000000e+000 0.000000000000e+000
          7.462686567133e+001 0.000000000000e+000 0.000000000000e+000
          7.611940298476e+001 0.000000000000e+000 0.000000000000e+000
          7.761194029819e+001 0.000000000000e+000 0.000000000000e+000
          7.910447761162e+001 0.000000000000e+000 0.000000000000e+000
          8.059701492505e+001 0.000000000000e+000 0.000000000000e+000
          8.208955223848e+001 0.000000000000e+000 0.000000000000e+000
          8.358208955191e+001 0.000000000000e+000 0.000000000000e+000
          8.507462686534e+001 0.000000000000e+000 0.000000000000e+000
          8.656716417877e+001 0.000000000000e+000 0.000000000000e+000
          8.805970149220e+001 0.000000000000e+000 0.000000000000e+000
          8.955223880563e+001 0.000000000000e+000 0.000000000000e+000
          9.104477611907e+001 0.000000000000e+000 0.000000000000e+000
          9.253731343250e+001 0.000000000000e+000 0.000000000000e+000
          9.402985074593e+001 0.000000000000e+000 0.000000000000e+000
          9.552238805936e+001 0.000000000000e+000 0.000000000000e+000
          9.701492537279e+001 0.000000000000e+000 0.000000000000e+000
          9.850746268622e+001 0.000000000000e+000 0.000000000000e+000
          9.999999999965e+001 0.000000000000e+000 0.000000000000e+000
          1.014925373131e+002 0.000000000000e+000 0.000000000000e+000
          1.029850746265e+002 0.000000000000e+000 0.000000000000e+000
          1.044776119399e+002 0.000000000000e+000 0.000000000000e+000
          1.059701492534e+002 0.000000000000e+000 0.000000000000e+000
          1.074626865668e+002 0.000000000000e+000 0.000000000000e+000
          1.089552238802e+002 0.000000000000e+000 0.000000000000e+000
          1.104477611937e+002 0.000000000000e+000 0.000000000000e+000
          1.119402985071e+002 0.000000000000e+000 0.000000000000e+000
          1.134328358205e+002 0.000000000000e+000 0.000000000000e+000
          1.149253731340e+002 0.000000000000e+000 0.000000000000e+000
          1.164179104474e+002 0.000000000000e+000 0.000000000000e+000
          1.179104477608e+002 0.000000000000e+000 0.000000000000e+000
          1.194029850742e+002 0.000000000000e+000 0.000000000000e+000
          1.208955223877e+002 0.000000000000e+000 0.000000000000e+000
          1.223880597011e+002 0.000000000000e+000 0.000000000000e+000
          1.238805970145e+002 0.000000000000e+000 0.000000000000e+000
          1.253731343280e+002 0.000000000000e+000 0.000000000000e+000
          1.268656716414e+002 0.000000000000e+000 0.000000000000e+000
          1.283582089548e+002 0.000000000000e+000 0.000000000000e+000
          1.298507462683e+002 0.000000000000e+000 0.000000000000e+000
          1.313432835817e+002 0.000000000000e+000 0.000000000000e+000
          1.328358208952e+002 0.000000000000e+000 0.000000000000e+000
          1.343283582086e+002 0.000000000000e+000 0.000000000000e+000
          1.358208955220e+002 0.000000000000e+000 0.000000000000e+000
          1.373134328355e+002 0.000000000000e+000 0.000000000000e+000
          1.388059701489e+002 0.000000000000e+000 0.000000000000e+000
          1.402985074624e+002 0.000000000000e+000 0.000000000000e+000
          1.417910447758e+002 0.000000000000e+000 0.000000000000e+000
          1.432835820892e+002 0.000000000000e+000 0.000000000000e+000
          1.447761194027e+002 0.000000000000e+000 0.000000000000e+000
          1.462686567161e+002 0.000000000000e+000 0.000000000000e+000
          1.477611940296e+002 0.000000000000e+000 0.000000000000e+000
          1.492537313430e+002 0.000000000000e+000 0.000000000000e+000
          1.507462686564e+002 0.000000000000e+000 0.000000000000e+000
          1.522388059699e+002 0.000000000000e+000 0.000000000000e+000
          1.537313432833e+002 0.000000000000e+000 0.000000000000e+000
          1.552238805968e+002 0.000000000000e+000 0.000000000000e+000
          1.567164179102e+002 0.000000000000e+000 0.000000000000e+000
          1.582089552237e+002 0.000000000000e+000 0.000000000000e+000
          1.597014925371e+002 0.000000000000e+000 0.000000000000e+000
          1.611940298505e+002 0.000000000000e+000 0.000000000000e+000
          1.626865671640e+002 0.000000000000e+000 0.000000000000e+000
          1.641791044774e+002 0.000000000000e+000 0.000000000000e+000
          1.656716417909e+002 0.000000000000e+000 0.000000000000e+000
          1.671641791043e+002 0.000000000000e+000 0.000000000000e+000
          1.686567164177e+002 0.000000000000e+000 0.000000000000e+000
          1.701492537312e+002 0.000000000000e+000 0.000000000000e+000
          1.716417910446e+002 0.000000000000e+000 0.000000000000e+000
          1.731343283581e+002 0.000000000000e+000 0.000000000000e+000
          1.746268656715e+002 0.000000000000e+000 0.000000000000e+000
          1.761194029849e+002 0.000000000000e+000 0.000000000000e+000
          1.776119402984e+002 0.000000000000e+000 0.000000000000e+000
          1.791044776118e+002 0.000000000000e+000 0.000000000000e+000
          1.805970149253e+002 0.000000000000e+000 0.000000000000e+000
          1.820895522387e+002 0.000000000000e+000 0.000000000000e+000
          1.835820895521e+002 0.000000000000e+000 0.000000000000e+000
          1.850746268656e+002 0.000000000000e+000 0.000000000000e+000
          1.865671641790e+002 0.000000000000e+000 0.000000000000e+000
          1.880597014925e+002 0.000000000000e+000 0.000000000000e+000
          1.895522388059e+002 0.000000000000e+000 0.000000000000e+000
          1.910447761194e+002 0.000000000000e+000 0.000000000000e+000
          1.925373134328e+002 0.000000000000e+000 0.000000000000e+000
          1.940298507462e+002 0.000000000000e+000 0.000000000000e+000
          1.955223880597e+002 0.000000000000e+000 0.000000000000e+000
          1.970149253731e+002 0.000000000000e+000 0.000000000000e+000
          1.985074626866e+002 0.000000000000e+000 0.000000000000e+000
          2.000000000000e+002 1.428571428570e+000 0.000000000000e+000
          2.000000000000e+002 2.857142857140e+000 0.000000000000e+000
[...]
      <PointData Scalars="Capillary_Pressure">
        <DataArray type="Float64" Name="Capillary_Pressure" format="ascii">
          3.430600905044e+005 0.000000000000e+000 0.000000000000e+000 3.430668871797e+005 3.433586956865e+005 3.401150982762e+005 3.391905435766e+005 3.369739477215e+005 3.366934257515e+005 3.345296904615e+005 3.322616554336e+005 3.322121830512e+005 3.298119512436e+005 3.297666870909e+005 3.277071829049e+005 3.250532585602e+005 3.252233132816e+005 3.230493771853e+005 3.227593521951e+005 3.204557831125e+005 3.166457093352e+005 3.166694573251e+005 3.162296257227e+005 3.129165642663e+005 3.128006096528e+005 3.104802788384e+005 3.100482668520e+005 3.066107857406e+005 3.063623269147e+005 3.042238939106e+005 3.038643759818e+005 3.003544456491e+005 3.001349296805e+005 2.981445677222e+005 2.977394932156e+005 2.937447483362e+005 2.941591588264e+005 2.915006427741e+005 2.890086549632e+005 2.892046866261e+005 2.887955852379e+005 2.854239217760e+005 2.828541065139e+005 2.828400028668e+005 2.789684186366e+005 2.789752406022e+005 2.760878676814e+005 2.761583891213e+005 2.738014778614e+005 2.732663006212e+005 2.690452096023e+005 2.694039495248e+005 2.653380806087e+005 2.653649993173e+005 2.612110576008e+005 2.602715339323e+005 2.583068798604e+005 2.584805329572e+005 2.578558332275e+005 2.540157682531e+005 2.507377929860e+005 2.511313011776e+005 2.470324751348e+005 2.468673634805e+005 2.441684655400e+005 2.408321528834e+005 2.380194777052e+005 2.381313222889e+005 2.333295987671e+005 2.323326434247e+005 2.299761914815e+005 2.269686760756e+005 2.269469018463e+005 2.242937313756e+005 2.206505663107e+005 2.174239440284e+005 2.177726193260e+005 2.144010125681e+005 2.113895181772e+005 2.108627115459e+005 2.046574826826e+005 2.016006999833e+005 1.987659293995e+005 1.952911032381e+005 1.919926444912e+005 1.883665275033e+005 1.885826824853e+005 1.853058954463e+005 1.815678463905e+005 1.782076204305e+005 1.702498686979e+005 1.665068176419e+005 1.626773302832e+005 1.583111904767e+005 1.561119654541e+005 1.475023998574e+005 1.428207444274e+005 1.408829533373e+005 1.312439269483e+005 1.240811733140e+005 1.212773932883e+005 1.082523115163e+005 1.001224709265e+005 9.083923061692e+004 7.831124017980e+004 6.407687521258e+004 4.661180121028e+004 2.151301314378e+004 0.000000000000e+000 0.000000000000e+000 0.000000000000e+000 0.000000000000e+000 0.000000000000e+000 0.000000000000e+000 0.000000000000e+000 0.000000000000e+000 0.000000000000e+000 0.000000000000e+000 0.000000000000e+000 0.000000000000e+000 0.000000000000e+000 0.000000000000e+000 0.000000000000e+000 0.000000000000e+000 0.000000000000e+000 0.000000000000e+000 0.000000000000e+000 0.000000000000e+000 0.000000000000e+000 0.000000000000e+000 0.000000000000e+000 0.000000000000e+000 0.000000000000e+000 0.000000000000e+000 0.000000000000e+000 0.000000000000e+000 0.000000000000e+000 0.000000000000e+000 0.000000000000e+000 0.000000000000e+000 0.000000000000e+000 0.000000000000e+000 0.000000000000e+000 0.000000000000e+000 0.000000000000e+000 0.000000000000e+000 0.000000000000e+000 0.000000000000e+000 0.000000000000e+000 0.000000000000e+000 0.000000000000e+000 0.000000000000e+000 0.000000000000e+000 0.000000000000e+000 0.000000000000e+000 0.000000000000e+000 0.000000000000e+000 0.000000000000e+000 0.000000000000e+000 0.000000000000e+000 0.000000000000e+000 0.000000000000e+000 0.000000000000e+000 0.000000000000e+000 0.000000000000e+000 0.000000000000e+000 0.000000000000e+000 0.000000000000e+000 0.000000000000e+000 0.000000000000e+000 0.000000000000e+000 0.000000000000e+000 0.000000000000e+000 0.000000000000e+000 0.000000000000e+000 0.000000000000e+000 0.000000000000e+000 0.000000000000e+000 0.000000000000e+000 2.151093000465e+004 4.664539616293e+004 6.413066732774e+004 7.830350153889e+004 9.084182152918e+004 1.001257693238e+005 1.082361294733e+005 1.212682817430e+005 1.240792704938e+005 1.312252899696e+005 1.408552674152e+005 1.428134185446e+005 1.474990221576e+005 1.560941593019e+005 1.582758792587e+005 1.626623623287e+005 1.664651629729e+005 1.702162858153e+005 1.782624562725e+005 1.815434943477e+005 1.852660979667e+005 1.885657439138e+005 1.883612046992e+005 1.919802781651e+005 1.953240358919e+005 1.987979541455e+005 2.015936746556e+005 2.046544747954e+005 2.108284614310e+005 2.113880754968e+005 2.144426948571e+005 2.177715558824e+005 2.174033359388e+005 2.206432224369e+005 2.242901339181e+005 2.269687000590e+005 2.300904376128e+005 2.299621321177e+005 2.323391564952e+005 2.332814532989e+005 2.381478111704e+005 2.411614293650e+005 2.409111571239e+005 2.440557883588e+005 2.468817055947e+005 2.470459999324e+005 2.511311424273e+005 2.507508470332e+005 2.540777900229e+005 2.578506933086e+005 2.584879886852e+005 2.583496533547e+005 2.602854988341e+005 2.649173111232e+005 2.653811183255e+005 2.653201643513e+005 2.694205222638e+005 2.690596033968e+005 2.732669827180e+005 2.737732347911e+005 2.761242148875e+005 2.760217470173e+005 2.789390102501e+005 2.823882286532e+005 2.828287373356e+005 2.827606529146e+005 2.854406126512e+005 2.887514724290e+005 2.892243608305e+005 2.889937571963e+005 2.914536095599e+005 2.941799297341e+005 2.937415072696e+005 2.977470157229e+005 2.981309942200e+005 3.001294829972e+005 3.003481256277e+005 3.038716277423e+005 3.042201247558e+005 3.063640500411e+005 3.065913217360e+005 3.100654709715e+005 3.104651639610e+005 3.127856927144e+005 3.129248453793e+005 3.162330435039e+005 3.166513286669e+005 3.166382439565e+005 3.204505057333e+005 3.227501778364e+005 3.230330062977e+005 3.252226900259e+005 3.251115857693e+005 3.275445283853e+005 3.275577784459e+005 3.297795360359e+005 3.322556714329e+005 3.321935689080e+005 3.345634771096e+005 3.366890995885e+005 3.369749601921e+005 3.391492709564e+005 3.401319689822e+005 3.433523232439e+005 3.430684163664e+005 3.430686689991e+005 3.430641683335e+005 3.430658806917e+005 3.430633988233e+005 3.430632675920e+005 3.430622528165e+005 3.430583571617e+005 3.430629448132e+005 3.430681612953e+005 3.430592365250e+005 3.430650999333e+005 3.430640718735e+005 0.000000000000e+000 3.345570355865e+005 0.000000000000e+000 0.000000000000e+000 0.000000000000e+000 9.601170051486e+004 1.481275534659e+005 3.165333559537e+005 1.772137956714e+005 3.041047307556e+005 2.942895193630e+005 2.829395068751e+005 2.652553563432e+005 2.515194152372e+005 2.379352574532e+005 2.207112059648e+005 2.024732123328e+005 3.253655208333e+005 2.737638461422e+005 1.883788184541e+005 1.920772182152e+005 2.113682239287e+005 2.301945061484e+005 2.440338306883e+005 2.584916541843e+005 0.000000000000e+000 0.000000000000e+000 4.432612933597e+004 2.584840350601e+005 2.441712400768e+005 2.300102833966e+005 2.107212037500e+005 1.239736751616e+005 1.626200279574e+005 3.104756928716e+005 3.001615023511e+005 2.891743884091e+005 1.627179701275e+005 1.240705298336e+005 4.658616576045e+004 0.000000000000e+000 0.000000000000e+000 2.892514552793e+005 3.001336386799e+005 3.104735005878e+005 0.000000000000e+000 0.000000000000e+000 2.760854295988e+005 2.695905881598e+005 3.297029114396e+005 3.203831725462e+005 0.000000000000e+000 3.369567579780e+005 0.000000000000e+000 3.369815392110e+005 3.294116272684e+005 3.204571582898e+005 2.790155997514e+005 2.692273320848e+005 0.000000000000e+000 2.025202046805e+005 0.000000000000e+000 2.206794120498e+005 2.379531072010e+005 2.515340400210e+005 2.649879013160e+005 1.772229003592e+005 0.000000000000e+000 9.488072514133e+004 1.482901853105e+005 3.041053451081e+005 2.942932313305e+005 1.783970379422e+005 1.483285750715e+005 9.599656115555e+004 0.000000000000e+000 2.515310640829e+005 2.379477342337e+005 2.206904788830e+005 0.000000000000e+000 2.024387419705e+005 0.000000000000e+000 2.829687493884e+005 2.942511935507e+005 3.040919122472e+005 3.165495761164e+005 0.000000000000e+000 0.000000000000e+000 3.322038672401e+005 3.162492566752e+005 2.611280364104e+005 2.852255732414e+005 0.000000000000e+000 3.392194240601e+005 3.253612166570e+005 3.345164298356e+005 3.253904491477e+005 2.733665146410e+005 2.790111391843e+005 2.695037645101e+005 3.298512634063e+005 3.204184003412e+005 2.737748247060e+005 0.000000000000e+000 2.606121190922e+004 0.000000000000e+000 1.212749286176e+005 0.000000000000e+000 1.586598347038e+005 2.108468161153e+005 2.411406369062e+005 2.542707564259e+005 2.270930935986e+005 3.100677213348e+005 2.889769684901e+005 2.998165617686e+005 1.919483845312e+005 2.738087965276e+005 0.000000000000e+000 3.401092568281e+005 0.000000000000e+000 3.401147939028e+005 2.058135084773e+005 2.236790101906e+005 2.413668021772e+005 2.540796180841e+005 1.710118288432e+005 1.957060853300e+005 1.846495751745e+005 1.370733215657e+005 2.853728691371e+005 6.976898611104e+004 2.980585930083e+005 0.000000000000e+000 3.067426256409e+005 0.000000000000e+000 0.000000000000e+000 0.000000000000e+000 0.000000000000e+000 0.000000000000e+000 7.104057568404e+004 1.221486384198e+004 1.371415068694e+005 1.170642081869e+005 3.067262805193e+005 1.597854777164e+005 1.710171461044e+005 2.980432519792e+005 3.004172489449e+005 2.539826256762e+005 2.413730623456e+005 2.237652637311e+005 2.470209279540e+005 2.301073513401e+005 2.107075514344e+005 2.135543919987e+005 2.890359484369e+005 1.847207725311e+005 1.956190903345e+005 0.000000000000e+000 3.128948132236e+005 0.000000000000e+000 3.003808148328e+005 1.687751120332e+004 2.890764604137e+005 1.160570920597e+005 2.608522544856e+005 2.471018765299e+005 2.301702106277e+005 2.174361823153e+005 1.598805471040e+005 3.253175963716e+005 0.000000000000e+000 0.000000000000e+000 2.691684921134e+005 2.820110262095e+005 3.203484653792e+005 1.847249972677e+005 2.301041513200e+005 2.134931702970e+005 2.469617302822e+005 2.608478559139e+005 3.128768911791e+005 2.980464529058e+005 0.000000000000e+000 2.853306590794e+005 0.000000000000e+000 7.257209709046e+004 1.709672172545e+005 1.320466326032e+005 3.127752452381e+005 0.000000000000e+000 0.000000000000e+000 2.731022370909e+005 3.298154707915e+005 0.000000000000e+000 1.851956906660e+005 1.744838787866e+005 1.409220021257e+005 2.853107794632e+005 7.946004001012e+004 2.976825999949e+005 2.470206368337e+005 2.322536573646e+005 2.178293995730e+005 0.000000000000e+000 3.129140184090e+005 0.000000000000e+000 3.228599820289e+005 2.608733931225e+005 0.000000000000e+000 0.000000000000e+000 0.000000000000e+000 2.582828920842e+005 2.887127088391e+005 2.653452457998e+005 2.823834823048e+005 3.367227355128e+005 3.166363557517e+005 3.322025450686e+005 3.275275495782e+005 3.166123392480e+005 2.046131914333e+005 2.242776447320e+005 2.411990578530e+005 2.540307057928e+005 0.000000000000e+000 3.065860595780e+005 0.000000000000e+000 1.953281394880e+005 1.561356510871e+005 0.000000000000e+000 1.081722076334e+005 0.000000000000e+000 0.000000000000e+000 2.053955222129e+005 2.243266771905e+005 2.411726292622e+005 2.540391540421e+005 3.065028767145e+005 2.914497640196e+005 3.038558306437e+005 3.038517148435e+005 0.000000000000e+000 2.908808619109e+005 1.081757330806e+005 1.560936392471e+005 1.953424837349e+005 0.000000000000e+000 0.000000000000e+000 3.401165518048e+005 3.401395482490e+005 0.000000000000e+000 3.361876552929e+005 0.000000000000e+000 0.000000000000e+000 3.345725429346e+005 0.000000000000e+000 3.321655829740e+005 3.361926294183e+005 2.825663520493e+005 2.648113521428e+005 3.160482572167e+005 3.320958057275e+005 2.828490133548e+005 3.229231297066e+005 3.230552825745e+005 2.653519941009e+005 3.274453945873e+005 2.789089583196e+005 2.731284387291e+005 3.275808370594e+005 2.979691796142e+005 1.700606797916e+005 1.357140503703e+005 7.530963057084e+004 0.000000000000e+000 0.000000000000e+000 1.853628067676e+005 2.609647011467e+005 2.464992960381e+005 2.331542489395e+005 2.176688320500e+005 2.763191511829e+005 3.230117685979e+005 2.694980071820e+005 2.756098250270e+005 0.000000000000e+000 0.000000000000e+000 3.124681083837e+005 2.885044502147e+005 3.345899347254e+005 3.369042665428e+005 0.000000000000e+000 3.274913097791e+005 2.020300112604e+005 2.237658781345e+005 2.381285394604e+005 2.507129868000e+005 1.782134537469e+005 1.777495140418e+005 1.986501957804e+005 1.427989703482e+005 9.306202708281e+004 2.828115478262e+005 0.000000000000e+000 2.941797179031e+005 0.000000000000e+000 3.063895190574e+005 0.000000000000e+000 0.000000000000e+000 0.000000000000e+000 9.301693684002e+004 1.443437947649e+005 3.064188380215e+005 2.941833847595e+005 2.507182940164e+005 2.381524077583e+005 2.238088189510e+005 0.000000000000e+000 3.162269567837e+005 2.611701011772e+005 0.000000000000e+000 0.000000000000e+000 0.000000000000e+000 3.129816450274e+005 3.167340193586e+005 3.321496555509e+005 2.732646601122e+005 0.000000000000e+000 0.000000000000e+000 5.549646046521e+004 1.280224628477e+005 1.672701787424e+005 3.104092623007e+005 2.979072353414e+005 2.889677803564e+005 2.108935237998e+005 2.439591487526e+005 2.586135173491e+005 2.302878083959e+005 1.886390590706e+005 0.000000000000e+000 0.000000000000e+000 0.000000000000e+000 0.000000000000e+000 9.707249550481e+004 1.482191609153e+005 2.943085708544e+005 2.515206248395e+005 2.377525599930e+005 2.206023487238e+005 3.394788792267e+005 2.762716321302e+005 1.783544033979e+005 1.774519531448e+005 2.650013379484e+005 0.000000000000e+000 3.431884437690e+005 2.853506002839e+005 2.603592956056e+005 1.627341070475e+005 1.241011188163e+005 4.656066811702e+004 0.000000000000e+000 0.000000000000e+000 2.892173397144e+005 3.001079148719e+005 3.104716336559e+005 2.300930460281e+005 2.113930099645e+005 2.584932655377e+005 2.441329291278e+005 0.000000000000e+000 0.000000000000e+000 2.440810304625e+005 2.300530675987e+005 4.657169995768e+004 2.113960263569e+005 1.240840168614e+005 1.626861920384e+005 3.001126733800e+005 1.883426264337e+005 1.883529636452e+005 3.227261041156e+005 2.790759789661e+005 3.252066771726e+005 2.584825991689e+005 2.737245250731e+005 0.000000000000e+000 0.000000000000e+000 2.693493116644e+005 2.655443161605e+005 2.735274009936e+005 1.734128894503e+005 2.023444809718e+005 1.991755429357e+005 1.805053570505e+005 2.169341905748e+005 2.332400764915e+005 2.509640317946e+005 1.506432767593e+005 3.041502970024e+005 2.939666834377e+005 0.000000000000e+000 0.000000000000e+000 1.041199368844e+005 0.000000000000e+000 3.041437326679e+005 0.000000000000e+000 2.939463883818e+005 2.509156082481e+005 2.331822157733e+005 2.172763785847e+005 1.041484607343e+005 1.506574938966e+005 3.395708454452e+005 3.320625565672e+005 0.000000000000e+000 3.395826020419e+005 2.025411253931e+005 2.024966120347e+005 3.040939422461e+005 3.041228199041e+005 0.000000000000e+000 0.000000000000e+000 0.000000000000e+000 3.274222294349e+005 3.345242707908e+005 3.162275330048e+005 3.254219626325e+005 0.000000000000e+000 3.431800515484e+005 0.000000000000e+000 3.431850511172e+005 3.296683546475e+005 0.000000000000e+000 0.000000000000e+000 1.483368161091e+005 9.599339187797e+004 2.943011605930e+005 2.204984548694e+005 2.515321916397e+005 2.379580224453e+005 0.000000000000e+000 3.204762965288e+005 3.204828672431e+005 3.321807285389e+005 2.654386090933e+005 2.826075853570e+005 3.322271114284e+005 3.165506374354e+005 3.104211727092e+005 2.789380346893e+005 3.200822416998e+005 0.000000000000e+000 0.000000000000e+000 2.819736399264e+005 2.654541439150e+005 0.000000000000e+000 2.828977412223e+005 2.653651871084e+005 2.694225513373e+005 0.000000000000e+000 3.128960239881e+005 0.000000000000e+000 2.470111727278e+005 2.322402432589e+005 2.178228976922e+005 1.813999972750e+005 2.980428511032e+005 6.981104010300e+004 2.882824703579e+005 1.371015339359e+005 1.744871468803e+005 0.000000000000e+000 3.230693398271e+005 2.695462169158e+005 2.760143913645e+005 2.829883415949e+005 3.275155052658e+005 0.000000000000e+000 3.431647268193e+005 0.000000000000e+000 3.433410064129e+005 3.346169782766e+005 3.165390627709e+005 2.737926377546e+005 2.789854189326e+005 0.000000000000e+000 2.893050620210e+005 2.582647752158e+005 3.204892387811e+005 2.654475614877e+005 3.253474461098e+005 1.598014999947e+005 1.154012821038e+005 1.445221582892e+004 2.890611374669e+005 3.004519630228e+005 0.000000000000e+000 0.000000000000e+000 1.081377105879e+005 0.000000000000e+000 1.560274652355e+005 3.038856975922e+005 2.908598998828e+005 3.059331623753e+005 2.540322549080e+005 2.243452733510e+005 2.380200540485e+005 2.057648555286e+005 0.000000000000e+000 0.000000000000e+000 3.067032904118e+005 1.956354054012e+005 2.541120249284e+005 2.413882178611e+005 2.237209284382e+005 2.106859254149e+005 1.952786724925e+005 1.883462541739e+005 2.113977916134e+005 2.441966101225e+005 2.301761726670e+005 2.584827810774e+005 0.000000000000e+000 0.000000000000e+000 4.648969940955e+004 1.626566030742e+005 1.240467497973e+005 3.104777976372e+005 3.000895487036e+005 2.892105514561e+005 2.826174110509e+005 3.166616459158e+005 0.000000000000e+000 3.346363719756e+005 1.954266696142e+005 2.056402812562e+005 2.242741743864e+005 2.410325689797e+005 2.539934910060e+005 0.000000000000e+000 0.000000000000e+000 3.058668582590e+005 0.000000000000e+000 1.080749472873e+005 1.559134112223e+005 3.040599103615e+005 2.909178704114e+005 2.730346943127e+005 0.000000000000e+000 2.762472138907e+005 0.000000000000e+000 1.921620213142e+005 1.883519247962e+005 2.113428102554e+005 2.298955029217e+005 2.439971140925e+005 2.582998091297e+005 0.000000000000e+000 0.000000000000e+000 4.892926521853e+004 1.290838697084e+005 1.622582948554e+005 3.000859986561e+005 1.626217512045e+005 2.441256232600e+005 2.269464182733e+005 2.113386590876e+005 1.241123786806e+005 4.658298176090e+004 2.892247330057e+005 0.000000000000e+000 3.000982641335e+005 0.000000000000e+000 3.104718587966e+005 3.253428992643e+005 0.000000000000e+000 3.102605579136e+005 0.000000000000e+000 2.410530531506e+005 2.108600476812e+005 2.267579550676e+005 2.541946652196e+005 2.997758822910e+005 2.811582531205e+004 2.886492883294e+005 1.193407866039e+005 1.587999019405e+005 1.918076463264e+005 3.345755274073e+005 0.000000000000e+000 3.431738982727e+005 0.000000000000e+000 0.000000000000e+000 0.000000000000e+000 2.763454201000e+005 2.696016895112e+005 3.206018905640e+005 3.104437012990e+005 0.000000000000e+000 3.341172851151e+005 0.000000000000e+000 0.000000000000e+000 3.166216036113e+005 1.745335506046e+005 1.409879625603e+005 2.854268390273e+005 8.515715117889e+004 2.977050412807e+005 2.177727423961e+005 2.322659102922e+005 2.470211817337e+005 1.813449934337e+005 0.000000000000e+000 3.129482392224e+005 0.000000000000e+000 2.829592993808e+005 2.650161073186e+005 2.760614902093e+005 3.298048139522e+005 3.321661101102e+005 0.000000000000e+000 3.392418750614e+005 0.000000000000e+000 3.392374003954e+005 2.582391793318e+005 2.893049113781e+005 2.603242542706e+005 3.275204448457e+005 0.000000000000e+000 3.394684016431e+005 2.790742474548e+005 2.696010972373e+005 2.761274812487e+005 3.205619752866e+005 3.297331584599e+005 3.251548468270e+005 2.853813440344e+005 3.297172411590e+005 3.230927046956e+005 2.763689917328e+005 3.322368886576e+005 3.298414230699e+005 2.736000706467e+005 2.822850528246e+005 2.695160689229e+005 2.789804788326e+005 0.000000000000e+000 3.366980972032e+005 3.129574850093e+005 1.887293646845e+005 1.805541079601e+005 0.000000000000e+000 0.000000000000e+000 0.000000000000e+000 0.000000000000e+000 7.950397913580e+004 1.409439165123e+005 2.976772119984e+005 1.663504946214e+005 1.734045067009e+005 2.583137830788e+005 2.604135376553e+005 2.467652183178e+005 2.509575456009e+005 2.331643066737e+005 2.293572093890e+005 2.145163804333e+005 2.179581243102e+005 3.369555444364e+005 0.000000000000e+000 0.000000000000e+000 0.000000000000e+000 0.000000000000e+000 3.396005887196e+005 0.000000000000e+000 2.057138667026e+005 2.237323433155e+005 2.413483651718e+005 2.532299926789e+005 1.956628615048e+005 1.842811646881e+005 1.710132954901e+005 1.371778433719e+005 2.853345997700e+005 7.103518124190e+004 2.980016957076e+005 0.000000000000e+000 3.066803999121e+005 0.000000000000e+000 0.000000000000e+000 0.000000000000e+000 0.000000000000e+000 7.107855368039e+004 1.37182