<?xml version="1.0"?>
<VTKFile type="UnstructuredGrid" version="0.1" byte_order="LittleEndian">
  <UnstructuredGrid>
    <Piece NumberOfPoints="2604" NumberOfCells="4910">
      <Points>
        <DataArray type="Float64" NumberOfComponents="3" format="ascii">
          0.000000000000e+000 0.000000000000e+000 0.000000000000e+000
          2.000000000000e+002 0.000000000000e+000 0.000000000000e+000
          2.000000000000e+002 2.000000000000e+001 0.000000000000e+000
          0.000000000000e+000 2.000000000000e+001 0.000000000000e+000
          1.492537313427e+000 0.000000000000e+000 0.000000000000e+000
          2.985074626854e+000 0.000000000000e+000 0.000000000000e+000
          4.477611940281e+000 0.000000000000e+000 0.000000000000e+000
          5.970149253708e+000 0.000000000000e+000 0.000000000000e+000
          7.462686567135e+000 0.000000000000e+000 0.000000000000e+000
          8.955223880561e+000 0.000000000000e+000 0.000000000000e+000
          1.044776119399e+001 0.000000000000e+000 0.000000000000e+000
          1.194029850741e+001 0.000000000000e+000 0.000000000000e+000
          1.343283582084e+001 0.000000000000e+000 0.000000000000e+000
          1.492537313427e+001 0.000000000000e+000 0.000000000000e+000
          1.641791044770e+001 0.000000000000e+000 0.000000000000e+000
          1.791044776112e+001 0.000000000000e+000 0.000000000000e+000
          1.940298507455e+001 0.000000000000e+000 0.000000000000e+000
          2.089552238798e+001 0.000000000000e+000 0.000000000000e+000
          2.238805970141e+001 0.000000000000e+000 0.000000000000e+000
          2.388059701484e+001 0.000000000000e+000 0.000000000000e+000
          2.537313432826e+001 0.000000000000e+000 0.000000000000e+000
          2.686567164169e+001 0.000000000000e+000 0.000000000000e+000
          2.835820895511e+001 0.000000000000e+000 0.000000000000e+000
          2.985074626854e+001 0.000000000000e+000 0.000000000000e+000
          3.134328358196e+001 0.000000000000e+000 0.000000000000e+000
          3.283582089539e+001 0.000000000000e+000 0.000000000000e+000
          3.432835820881e+001 0.000000000000e+000 0.000000000000e+000
          3.582089552224e+001 0.000000000000e+000 0.000000000000e+000
          3.731343283566e+001 0.000000000000e+000 0.000000000000e+000
          3.880597014909e+001 0.000000000000e+000 0.000000000000e+000
          4.029850746251e+001 0.000000000000e+000 0.000000000000e+000
          4.179104477594e+001 0.000000000000e+000 0.000000000000e+000
          4.328358208936e+001 0.000000000000e+000 0.000000000000e+000
          4.477611940279e+001 0.000000000000e+000 0.000000000000e+000
          4.626865671621e+001 0.000000000000e+000 0.000000000000e+000
          4.776119402964e+001 0.000000000000e+000 0.000000000000e+000
          4.925373134306e+001 0.000000000000e+000 0.000000000000e+000
          5.074626865649e+001 0.000000000000e+000 0.000000000000e+000
          5.223880596991e+001 0.000000000000e+000 0.000000000000e+000
          5.373134328334e+001 0.000000000000e+000 0.000000000000e+000
          5.522388059676e+001 0.000000000000e+000 0.000000000000e+000
          5.671641791019e+001 0.000000000000e+000 0.000000000000e+000
          5.820895522361e+001 0.000000000000e+000 0.000000000000e+000
          5.970149253704e+001 0.000000000000e+000 0.000000000000e+000
          6.119402985046e+001 0.000000000000e+000 0.000000000000e+000
          6.268656716389e+001 0.000000000000e+000 0.000000000000e+000
          6.417910447732e+001 0.000000000000e+000 0.000000000000e+000
          6.567164179075e+001 0.000000000000e+000 0.000000000000e+000
          6.716417910418e+001 0.000000000000e+000 0.000000000000e+000
          6.865671641761e+001 0.000000000000e+000 0.000000000000e+000
          7.014925373104e+001 0.000000000000e+000 0.000000000000e+000
          7.164179104447e+001 0.000000000000e+000 0.000000000000e+000
          7.313432835790e+001 0.000000000000e+000 0.000000000000e+000
          7.462686567133e+001 0.000000000000e+000 0.000000000000e+000
          7.611940298476e+001 0.000000000000e+000 0.000000000000e+000
          7.761194029819e+001 0.000000000000e+000 0.000000000000e+000
          7.910447761162e+001 0.000000000000e+000 0.000000000000e+000
          8.059701492505e+001 0.000000000000e+000 0.000000000000e+000
          8.208955223848e+001 0.000000000000e+000 0.000000000000e+000
          8.358208955191e+001 0.000000000000e+000 0.000000000000e+000
          8.507462686534e+001 0.000000000000e+000 0.000000000000e+000
          8.656716417877e+001 0.000000000000e+000 0.000000000000e+000
          8.805970149220e+001 0.000000000000e+000 0.000000000000e+000
          8.955223880563e+001 0.000000000000e+000 0.000000000000e+000
          9.104477611907e+001 0.000000000000e+000 0.000000000000e+000
          9.253731343250e+001 0.000000000000e+000 0.000000000000e+000
          9.402985074593e+001 0.000000000000e+000 0.000000000000e+000
          9.552238805936e+001 0.000000000000e+000 0.000000000000e+000
          9.701492537279e+001 0.000000000000e+000 0.000000000000e+000
          9.850746268622e+001 0.000000000000e+000 0.000000000000e+000
          9.999999999965e+001 0.000000000000e+000 0.000000000000e+000
          1.014925373131e+002 0.000000000000e+000 0.000000000000e+000
          1.029850746265e+002 0.000000000000e+000 0.000000000000e+000
          1.044776119399e+002 0.000000000000e+000 0.000000000000e+000
          1.059701492534e+002 0.000000000000e+000 0.000000000000e+000
          1.074626865668e+002 0.000000000000e+000 0.000000000000e+000
          1.089552238802e+002 0.000000000000e+000 0.000000000000e+000
          1.104477611937e+002 0.000000000000e+000 0.000000000000e+000
          1.119402985071e+002 0.000000000000e+000 0.000000000000e+000
          1.134328358205e+002 0.000000000000e+000 0.000000000000e+000
          1.149253731340e+002 0.000000000000e+000 0.000000000000e+000
          1.164179104474e+002 0.000000000000e+000 0.000000000000e+000
          1.179104477608e+002 0.000000000000e+000 0.000000000000e+000
          1.194029850742e+002 0.000000000000e+000 0.000000000000e+000
          1.208955223877e+002 0.000000000000e+000 0.000000000000e+000
          1.223880597011e+002 0.000000000000e+000 0.000000000000e+000
          1.238805970145e+002 0.000000000000e+000 0.000000000000e+000
          1.253731343280e+002 0.000000000000e+000 0.000000000000e+000
          1.268656716414e+002 0.000000000000e+000 0.000000000000e+000
          1.283582089548e+002 0.000000000000e+000 0.000000000000e+000
          1.298507462683e+002 0.000000000000e+000 0.000000000000e+000
          1.313432835817e+002 0.000000000000e+000 0.000000000000e+000
          1.328358208952e+002 0.000000000000e+000 0.000000000000e+000
          1.343283582086e+002 0.000000000000e+000 0.000000000000e+000
          1.358208955220e+002 0.000000000000e+000 0.000000000000e+000
          1.373134328355e+002 0.000000000000e+000 0.000000000000e+000
          1.388059701489e+002 0.000000000000e+000 0.000000000000e+000
          1.402985074624e+002 0.000000000000e+000 0.000000000000e+000
          1.417910447758e+002 0.000000000000e+000 0.000000000000e+000
          1.432835820892e+002 0.000000000000e+000 0.000000000000e+000
          1.447761194027e+002 0.000000000000e+000 0.000000000000e+000
          1.462686567161e+002 0.000000000000e+000 0.000000000000e+000
          1.477611940296e+002 0.000000000000e+000 0.000000000000e+000
          1.492537313430e+002 0.000000000000e+000 0.000000000000e+000
          1.507462686564e+002 0.000000000000e+000 0.000000000000e+000
          1.522388059699e+002 0.000000000000e+000 0.000000000000e+000
          1.537313432833e+002 0.000000000000e+000 0.000000000000e+000
          1.552238805968e+002 0.000000000000e+000 0.000000000000e+000
          1.567164179102e+002 0.000000000000e+000 0.000000000000e+000
          1.582089552237e+002 0.000000000000e+000 0.000000000000e+000
          1.597014925371e+002 0.000000000000e+000 0.000000000000e+000
          1.611940298505e+002 0.000000000000e+000 0.000000000000e+000
          1.626865671640e+002 0.000000000000e+000 0.000000000000e+000
          1.641791044774e+002 0.000000000000e+000 0.000000000000e+000
          1.656716417909e+002 0.000000000000e+000 0.000000000000e+000
          1.671641791043e+002 0.000000000000e+000 0.000000000000e+000
          1.686567164177e+002 0.000000000000e+000 0.000000000000e+000
          1.701492537312e+002 0.000000000000e+000 0.000000000000e+000
          1.716417910446e+002 0.000000000000e+000 0.000000000000e+000
          1.731343283581e+002 0.000000000000e+000 0.000000000000e+000
          1.746268656715e+002 0.000000000000e+000 0.000000000000e+000
          1.761194029849e+002 0.000000000000e+000 0.000000000000e+000
          1.776119402984e+002 0.000000000000e+000 0.000000000000e+000
          1.791044776118e+002 0.000000000000e+000 0.000000000000e+000
          1.805970149253e+002 0.000000000000e+000 0.000000000000e+000
          1.820895522387e+002 0.000000000000e+000 0.000000000000e+000
          1.835820895521e+002 0.000000000000e+000 0.000000000000e+000
          1.850746268656e+002 0.000000000000e+000 0.000000000000e+000
          1.865671641790e+002 0.000000000000e+000 0.000000000000e+000
          1.880597014925e+002 0.000000000000e+000 0.000000000000e+000
          1.895522388059e+002 0.000000000000e+000 0.000000000000e+000
          1.910447761194e+002 0.000000000000e+000 0.000000000000e+000
          1.925373134328e+002 0.000000000000e+000 0.000000000000e+000
          1.940298507462e+002 0.000000000000e+000 0.000000000000e+000
          1.955223880597e+002 0.000000000000e+000 0.000000000000e+000
          1.970149253731e+002 0.000000000000e+000 0.000000000000e+000
          1.985074626866e+002 0.000000000000e+000 0.000000000000e+000
          2.000000000000e+002 1.428571428570e+000 0.000000000000e+000
          2.000000000000e+002 2.857142857140e+000 0.000000000000e+000
[...]
      <PointData Scalars="Capillary_Pressure">
        <DataArray type="Float64" Name="Capillary_Pressure" format="ascii">
          2.992173485527e+005 0.000000000000e+000 0.000000000000e+000 2.992194795277e+005 2.995830297845e+005 2.955915230155e+005 2.945166643056e+005 2.918046114424e+005 2.914738499022e+005 2.888330274926e+005 2.860762778297e+005 2.860168738757e+005 2.831218760055e+005 2.831390641009e+005 2.805429587047e+005 2.773312143612e+005 2.776159657308e+005 2.749857533446e+005 2.747159817215e+005 2.718768208412e+005 2.671157309807e+005 2.672724158438e+005 2.668377532098e+005 2.626894611126e+005 2.626777306846e+005 2.598107078530e+005 2.593972793077e+005 2.550695062059e+005 2.549138257082e+005 2.522695252267e+005 2.520060386467e+005 2.474750030266e+005 2.474180930170e+005 2.449637235448e+005 2.446918407249e+005 2.394347337533e+005 2.402978047271e+005 2.369382465512e+005 2.337280348576e+005 2.343130983548e+005 2.340262897571e+005 2.296322729748e+005 2.263867764877e+005 2.266408931687e+005 2.214492254445e+005 2.218449152302e+005 2.180683235985e+005 2.185605687781e+005 2.155162226707e+005 2.151021463341e+005 2.094676809702e+005 2.103125089325e+005 2.046844113707e+005 2.051856595477e+005 1.993964875459e+005 1.984040820690e+005 1.959422124410e+005 1.966427663427e+005 1.961897120669e+005 1.908760193801e+005 1.861581158286e+005 1.873882547165e+005 1.814469126872e+005 1.818008921374e+005 1.779918027177e+005 1.731862819806e+005 1.691523879544e+005 1.699243585414e+005 1.625277699356e+005 1.614690920912e+005 1.580157579125e+005 1.534513687778e+005 1.542091457882e+005 1.501512731592e+005 1.442096155632e+005 1.388784670779e+005 1.405095444641e+005 1.348419961387e+005 1.297808920676e+005 1.295788552399e+005 1.175067402424e+005 1.116271357358e+005 1.059755782944e+005 9.859655680584e+004 9.092364192452e+004 8.203767236233e+004 8.435974284262e+004 7.583791954318e+004 6.512119966807e+004 5.459954733243e+004 1.786161418021e+004 4.102062317548e+001 0.000000000000e+000 0.000000000000e+000 0.000000000000e+000 0.000000000000e+000 0.000000000000e+000 0.000000000000e+000 0.000000000000e+000 0.000000000000e+000 0.000000000000e+000 0.000000000000e+000 0.000000000000e+000 0.000000000000e+000 0.000000000000e+000 0.000000000000e+000 0.000000000000e+000 0.000000000000e+000 0.000000000000e+000 0.000000000000e+000 0.000000000000e+000 0.000000000000e+000 0.000000000000e+000 0.000000000000e+000 0.000000000000e+000 0.000000000000e+000 0.000000000000e+000 0.000000000000e+000 0.000000000000e+000 0.000000000000e+000 0.000000000000e+000 0.000000000000e+000 0.000000000000e+000 0.000000000000e+000 0.000000000000e+000 0.000000000000e+000 0.000000000000e+000 0.000000000000e+000 0.000000000000e+000 0.000000000000e+000 0.000000000000e+000 0.000000000000e+000 0.000000000000e+000 0.000000000000e+000 0.000000000000e+000 0.000000000000e+000 0.000000000000e+000 0.000000000000e+000 0.000000000000e+000 0.000000000000e+000 0.000000000000e+000 0.000000000000e+000 0.000000000000e+000 0.000000000000e+000 0.000000000000e+000 0.000000000000e+000 0.000000000000e+000 0.000000000000e+000 0.000000000000e+000 0.000000000000e+000 0.000000000000e+000 0.000000000000e+000 0.000000000000e+000 0.000000000000e+000 0.000000000000e+000 0.000000000000e+000 0.000000000000e+000 0.000000000000e+000 0.000000000000e+000 0.000000000000e+000 0.000000000000e+000 0.000000000000e+000 0.000000000000e+000 0.000000000000e+000 0.000000000000e+000 0.000000000000e+000 0.000000000000e+000 0.000000000000e+000 0.000000000000e+000 0.000000000000e+000 0.000000000000e+000 0.000000000000e+000 0.000000000000e+000 0.000000000000e+000 0.000000000000e+000 0.000000000000e+000 0.000000000000e+000 0.000000000000e+000 0.000000000000e+000 0.000000000000e+000 0.000000000000e+000 0.000000000000e+000 0.000000000000e+000 0.000000000000e+000 0.000000000000e+000 0.000000000000e+000 0.000000000000e+000 0.000000000000e+000 0.000000000000e+000 0.000000000000e+000 0.000000000000e+000 0.000000000000e+000 0.000000000000e+000 0.000000000000e+000 0.000000000000e+000 3.119934342603e+001 1.795572550390e+004 5.471807929044e+004 6.513944952620e+004 7.572809378127e+004 8.419197983651e+004 8.195540753167e+004 9.091226674395e+004 9.857456013231e+004 1.060277542933e+005 1.116370121062e+005 1.174748189116e+005 1.295363211415e+005 1.297467461983e+005 1.348896503110e+005 1.405284556443e+005 1.388425981860e+005 1.442025848306e+005 1.501395088953e+005 1.542635335425e+005 1.591225303690e+005 1.579503875144e+005 1.614587781548e+005 1.624586974574e+005 1.699434401314e+005 1.743375732358e+005 1.733096830273e+005 1.778265301281e+005 1.817948292289e+005 1.814405358986e+005 1.873950569888e+005 1.861749541936e+005 1.909555554906e+005 1.961997544929e+005 1.966666048357e+005 1.960088970859e+005 1.984559991440e+005 2.049729434388e+005 2.052053326876e+005 2.046474096621e+005 2.103204200856e+005 2.094255981786e+005 2.150870258432e+005 2.154956254349e+005 2.185145639591e+005 2.179606248377e+005 2.217652931857e+005 2.263206110056e+005 2.266359649717e+005 2.262390086289e+005 2.296491103866e+005 2.339676400092e+005 2.343213711936e+005 2.337282438199e+005 2.368592610422e+005 2.402999192089e+005 2.394308834069e+005 2.447151364317e+005 2.449409664220e+005 2.474046274156e+005 2.474597532326e+005 2.520260447435e+005 2.522648022965e+005 2.549165276648e+005 2.550318846306e+005 2.594251391966e+005 2.597923631148e+005 2.626488739825e+005 2.626982528461e+005 2.668374030211e+005 2.672426817672e+005 2.670961274534e+005 2.718771486728e+005 2.747005221825e+005 2.749614085063e+005 2.776187905908e+005 2.774946407844e+005 2.803499348137e+005 2.803624272323e+005 2.830311590942e+005 2.860938332600e+005 2.859540613897e+005 2.888831238277e+005 2.914623835834e+005 2.917933026911e+005 2.944668552708e+005 2.956221355953e+005 2.995739291724e+005 2.992174271938e+005 2.992190189894e+005 2.992100405343e+005 2.992179781582e+005 2.992227778314e+005 2.992198964907e+005 2.992171771686e+005 2.992116141206e+005 2.992120745659e+005 2.992130188875e+005 2.992098976603e+005 2.992171377990e+005 2.992171881505e+005 0.000000000000e+000 2.888777148939e+005 0.000000000000e+000 0.000000000000e+000 0.000000000000e+000 0.000000000000e+000 0.000000000000e+000 2.671644166589e+005 4.883515534346e+004 2.520070277955e+005 2.403480734262e+005 2.266477370138e+005 2.052021101085e+005 1.876986639766e+005 1.699852982042e+005 1.448028535084e+005 1.142122189699e+005 2.777722577945e+005 2.154836308483e+005 8.213002247061e+004 9.259899542171e+004 1.297460393005e+005 1.591845744577e+005 1.777783225057e+005 1.966532465189e+005 0.000000000000e+000 0.000000000000e+000 0.000000000000e+000 1.966619034593e+005 1.778529325774e+005 1.589924812545e+005 1.281354407739e+005 0.000000000000e+000 0.000000000000e+000 2.597973756626e+005 2.474270116687e+005 2.342979838221e+005 0.000000000000e+000 0.000000000000e+000 0.000000000000e+000 0.000000000000e+000 0.000000000000e+000 2.343582527867e+005 2.474202442732e+005 2.598052167055e+005 0.000000000000e+000 0.000000000000e+000 2.179743156233e+005 2.102763285801e+005 2.830221218557e+005 2.717656639415e+005 0.000000000000e+000 2.917602655751e+005 0.000000000000e+000 2.918007273301e+005 2.826537674901e+005 2.718759861981e+005 2.218227795833e+005 2.100929839452e+005 0.000000000000e+000 1.142001180999e+005 0.000000000000e+000 1.446804701681e+005 1.700092376814e+005 1.877322227910e+005 2.049455121597e+005 4.889732747090e+004 0.000000000000e+000 0.000000000000e+000 0.000000000000e+000 2.520028309552e+005 2.403155655715e+005 5.400540411351e+004 0.000000000000e+000 0.000000000000e+000 0.000000000000e+000 1.876981784658e+005 1.699827109445e+005 1.447235825265e+005 0.000000000000e+000 1.141604910689e+005 0.000000000000e+000 2.266599577112e+005 2.402845144658e+005 2.519698811833e+005 2.671774427413e+005 0.000000000000e+000 0.000000000000e+000 2.859785757409e+005 2.668702408144e+005 1.993559147373e+005 2.295531004478e+005 0.000000000000e+000 2.945619909905e+005 2.777716611096e+005 2.888373754480e+005 2.777952057355e+005 2.146391944583e+005 2.220466180157e+005 2.103112945143e+005 2.831805630416e+005 2.718313019130e+005 2.154927024675e+005 0.000000000000e+000 0.000000000000e+000 0.000000000000e+000 0.000000000000e+000 0.000000000000e+000 0.000000000000e+000 1.294974687609e+005 1.735181689878e+005 1.905700374385e+005 1.542963851263e+005 2.594211460266e+005 2.337044150217e+005 2.468101377502e+005 9.096102675626e+004 2.154802296823e+005 0.000000000000e+000 2.955844962729e+005 0.000000000000e+000 2.955997753978e+005 1.192269051557e+005 1.484992043161e+005 1.743020709263e+005 1.906079351042e+005 2.450508266043e+004 1.004332051129e+005 7.257716631994e+004 0.000000000000e+000 2.293424880166e+005 0.000000000000e+000 2.449371613276e+005 0.000000000000e+000 2.551174494962e+005 0.000000000000e+000 0.000000000000e+000 0.000000000000e+000 0.000000000000e+000 0.000000000000e+000 0.000000000000e+000 0.000000000000e+000 0.000000000000e+000 0.000000000000e+000 2.551318277110e+005 0.000000000000e+000 2.450380509188e+004 2.449323920176e+005 2.475241315194e+005 1.904711394531e+005 1.743166685487e+005 1.486351275137e+005 1.818476342708e+005 1.579656088456e+005 1.295921245808e+005 1.327536097452e+005 2.337545432489e+005 7.263741095573e+004 1.004156103275e+005 0.000000000000e+000 2.627372548142e+005 0.000000000000e+000 2.475016138778e+005 0.000000000000e+000 2.337368936886e+005 0.000000000000e+000 1.995387594169e+005 1.818735272801e+005 1.579104271691e+005 1.403667115974e+005 0.000000000000e+000 2.776902982949e+005 0.000000000000e+000 0.000000000000e+000 2.100864690730e+005 2.260146308678e+005 2.718089097972e+005 7.256474706579e+004 1.579324282008e+005 1.328090720773e+005 1.818094398178e+005 1.995370669132e+005 2.627140443640e+005 2.448972849416e+005 0.000000000000e+000 2.292843119851e+005 0.000000000000e+000 0.000000000000e+000 2.450280814286e+004 0.000000000000e+000 2.626268854864e+005 0.000000000000e+000 0.000000000000e+000 2.151026714433e+005 2.831150208007e+005 0.000000000000e+000 7.578271710731e+004 4.032086288335e+004 0.000000000000e+000 2.296142932087e+005 0.000000000000e+000 2.446246417392e+005 1.814057679775e+005 1.612783057642e+005 1.405363434343e+005 0.000000000000e+000 2.626835734553e+005 0.000000000000e+000 2.747894744869e+005 1.993363091048e+005 0.000000000000e+000 0.000000000000e+000 0.000000000000e+000 1.959577963738e+005 2.338235375891e+005 2.047388736837e+005 2.262660800131e+005 2.915165377793e+005 2.671334040627e+005 2.860237823972e+005 2.803383151399e+005 2.670768318544e+005 1.174769402435e+005 1.500931447973e+005 1.743870930798e+005 1.908689736516e+005 0.000000000000e+000 2.550188217218e+005 0.000000000000e+000 9.852878731865e+004 0.000000000000e+000 0.000000000000e+000 0.000000000000e+000 0.000000000000e+000 0.000000000000e+000 1.193179480827e+005 1.501619211445e+005 1.743438098328e+005 1.908892384143e+005 2.549189394602e+005 2.369015183403e+005 2.519760010983e+005 2.519855957054e+005 0.000000000000e+000 2.360652766526e+005 0.000000000000e+000 0.000000000000e+000 9.862499995053e+004 0.000000000000e+000 0.000000000000e+000 2.955934331898e+005 2.956385595957e+005 0.000000000000e+000 2.908390026358e+005 0.000000000000e+000 0.000000000000e+000 2.888886955803e+005 0.000000000000e+000 2.859716493637e+005 2.908547701363e+005 2.264892652891e+005 2.040947105349e+005 2.663954978874e+005 2.858883905019e+005 2.266290702985e+005 2.748312853860e+005 2.749650197742e+005 2.052305518167e+005 2.802580687961e+005 2.218970110682e+005 2.150939531197e+005 2.804292225567e+005 2.449380685197e+005 1.780102584082e+004 0.000000000000e+000 0.000000000000e+000 0.000000000000e+000 0.000000000000e+000 7.558235299091e+004 1.995650444017e+005 1.808191531944e+005 1.630956588565e+005 1.404999814995e+005 2.185787117337e+005 2.749398583871e+005 2.099065623489e+005 2.174374655823e+005 0.000000000000e+000 0.000000000000e+000 2.621509794561e+005 2.337705370303e+005 2.889038941608e+005 2.916785094240e+005 0.000000000000e+000 2.803076949667e+005 1.126528256104e+005 1.501239562585e+005 1.699310515809e+005 1.861175125489e+005 5.460818040866e+004 4.994654770862e+004 1.058925302573e+005 0.000000000000e+000 0.000000000000e+000 2.263151844601e+005 0.000000000000e+000 2.400463840092e+005 0.000000000000e+000 2.549502482956e+005 0.000000000000e+000 0.000000000000e+000 0.000000000000e+000 0.000000000000e+000 0.000000000000e+000 2.549936666507e+005 2.400475964466e+005 1.861429163758e+005 1.699445254372e+005 1.501341411825e+005 0.000000000000e+000 2.668362004613e+005 1.993666280662e+005 0.000000000000e+000 0.000000000000e+000 0.000000000000e+000 2.626974640301e+005 2.672445076031e+005 2.859470950821e+005 2.151249040641e+005 0.000000000000e+000 0.000000000000e+000 0.000000000000e+000 0.000000000000e+000 0.000000000000e+000 2.596487303267e+005 2.445552070104e+005 2.340735528732e+005 1.281315348521e+005 1.773515330446e+005 1.966132705736e+005 1.588165869152e+005 8.382713103936e+004 0.000000000000e+000 0.000000000000e+000 0.000000000000e+000 0.000000000000e+000 0.000000000000e+000 0.000000000000e+000 2.403101876897e+005 1.877499728911e+005 1.697432904936e+005 1.447391357138e+005 2.948580208558e+005 2.186979090826e+005 5.413877757260e+004 4.961804396469e+004 2.049783767856e+005 0.000000000000e+000 2.993594240142e+005 2.296109883275e+005 1.984485831473e+005 0.000000000000e+000 0.000000000000e+000 0.000000000000e+000 0.000000000000e+000 0.000000000000e+000 2.343359532703e+005 2.473918552763e+005 2.598000673318e+005 1.591476929331e+005 1.297552821465e+005 1.966691412389e+005 1.779444740417e+005 0.000000000000e+000 0.000000000000e+000 1.779465774960e+005 1.591013047519e+005 0.000000000000e+000 1.297857760681e+005 0.000000000000e+000 0.000000000000e+000 2.473968290234e+005 8.199708879585e+004 8.204014599617e+004 2.745591613735e+005 2.215738959457e+005 2.776164050366e+005 1.960328687420e+005 2.155073402707e+005 0.000000000000e+000 0.000000000000e+000 2.102227154267e+005 2.048060423436e+005 2.153741931863e+005 3.384419101897e+004 1.127712792076e+005 1.076053101362e+005 6.040374443243e+004 1.383429202414e+005 1.626591682297e+005 1.873822133318e+005 0.000000000000e+000 2.522529638853e+005 2.401407573416e+005 0.000000000000e+000 0.000000000000e+000 0.000000000000e+000 0.000000000000e+000 2.522452738694e+005 0.000000000000e+000 2.401224486388e+005 1.873179611372e+005 1.625919606672e+005 1.388517912591e+005 0.000000000000e+000 0.000000000000e+000 2.949668000074e+005 2.858766539700e+005 0.000000000000e+000 2.949968465709e+005 1.142870105505e+005 1.141872180323e+005 2.519733017597e+005 2.520111304339e+005 0.000000000000e+000 0.000000000000e+000 0.000000000000e+000 2.802819340636e+005 2.888340248993e+005 2.668338522385e+005 2.778426818074e+005 0.000000000000e+000 2.993681998006e+005 0.000000000000e+000 2.993761806017e+005 2.829583593003e+005 0.000000000000e+000 0.000000000000e+000 0.000000000000e+000 0.000000000000e+000 2.403484670143e+005 1.443500625193e+005 1.876894033598e+005 1.699774556302e+005 0.000000000000e+000 2.718149574631e+005 2.718963558892e+005 2.859992768809e+005 2.051130967452e+005 2.264337697606e+005 2.860588181703e+005 2.670605454470e+005 2.597653857683e+005 2.218902522196e+005 2.714983048616e+005 0.000000000000e+000 0.000000000000e+000 2.259091800897e+005 2.048032670377e+005 0.000000000000e+000 2.263942220274e+005 2.047447160188e+005 2.102695243800e+005 0.000000000000e+000 2.627428370896e+005 0.000000000000e+000 1.814232513327e+005 1.612891928753e+005 1.405531148042e+005 6.232096002357e+004 2.449302181121e+005 0.000000000000e+000 2.335813984678e+005 0.000000000000e+000 4.028230550308e+004 0.000000000000e+000 2.749663733023e+005 2.099437205936e+005 2.184291426688e+005 2.267089053716e+005 2.803176589407e+005 0.000000000000e+000 2.993399899076e+005 0.000000000000e+000 2.995625305163e+005 2.889168478830e+005 2.671671457546e+005 2.154528469589e+005 2.219759642057e+005 0.000000000000e+000 2.343615988672e+005 1.964423486526e+005 2.718822984830e+005 2.051811661351e+005 2.777679595299e+005 0.000000000000e+000 0.000000000000e+000 0.000000000000e+000 2.337342426409e+005 2.475733415634e+005 0.000000000000e+000 0.000000000000e+000 0.000000000000e+000 0.000000000000e+000 0.000000000000e+000 2.520032160521e+005 2.360110362655e+005 2.541711794777e+005 1.909253237334e+005 1.502857456977e+005 1.692129737024e+005 1.200395403754e+005 0.000000000000e+000 0.000000000000e+000 2.550782341049e+005 1.003538705471e+005 1.906042095448e+005 1.742875848109e+005 1.485467956086e+005 1.295292901694e+005 9.854023213905e+004 8.204063265777e+004 1.297621609726e+005 1.780206901618e+005 1.592125427929e+005 1.966508248203e+005 0.000000000000e+000 0.000000000000e+000 0.000000000000e+000 0.000000000000e+000 0.000000000000e+000 2.598152435501e+005 2.473442630868e+005 2.343192804636e+005 2.264439096713e+005 2.671617883994e+005 0.000000000000e+000 2.889716555946e+005 9.860318687727e+004 1.199478587251e+005 1.502339930129e+005 1.742726295558e+005 1.909161785707e+005 0.000000000000e+000 0.000000000000e+000 2.541114734569e+005 0.000000000000e+000 0.000000000000e+000 0.000000000000e+000 2.522220714634e+005 2.360584872004e+005 2.142492056556e+005 0.000000000000e+000 2.186270035645e+005 0.000000000000e+000 9.266313110813e+004 8.204707277788e+004 1.298806563304e+005 1.590231320751e+005 1.778758703044e+005 1.964419083788e+005 0.000000000000e+000 0.000000000000e+000 0.000000000000e+000 0.000000000000e+000 0.000000000000e+000 2.473981264933e+005 0.000000000000e+000 1.780005257998e+005 1.533612537194e+005 1.297837376515e+005 0.000000000000e+000 0.000000000000e+000 2.343655509390e+005 0.000000000000e+000 2.473872640623e+005 0.000000000000e+000 2.598000258596e+005 2.777455591207e+005 0.000000000000e+000 2.596489461178e+005 0.000000000000e+000 1.733782176300e+005 1.294823645129e+005 1.537394770183e+005 1.904607102428e+005 2.467858819626e+005 0.000000000000e+000 2.333135275562e+005 0.000000000000e+000 0.000000000000e+000 9.092164956565e+004 2.888899310361e+005 0.000000000000e+000 2.993407532537e+005 0.000000000000e+000 0.000000000000e+000 0.000000000000e+000 2.186943448765e+005 2.099712845767e+005 2.720165217606e+005 2.597783730619e+005 0.000000000000e+000 2.883361797054e+005 0.000000000000e+000 0.000000000000e+000 2.672336430326e+005 4.031778675273e+004 0.000000000000e+000 2.296325848517e+005 0.000000000000e+000 2.446901649534e+005 1.405342854051e+005 1.612726207466e+005 1.814210439548e+005 6.228276808287e+004 0.000000000000e+000 2.626939779226e+005 0.000000000000e+000 2.266133419529e+005 2.049410258567e+005 2.180093497287e+005 2.831172295923e+005 2.859602561063e+005 0.000000000000e+000 2.945774038782e+005 0.000000000000e+000 2.945580809590e+005 1.964252166569e+005 2.343677783728e+005 1.984187186223e+005 2.803392586200e+005 0.000000000000e+000 2.948501592109e+005 2.219116259390e+005 2.103402800660e+005 2.180439455660e+005 2.719123470219e+005 2.830487592643e+005 2.775168197738e+005 2.293210222127e+005 2.830152456534e+005 2.750128121689e+005 2.185857152857e+005 2.860208170621e+005 2.831184150358e+005 2.154531356774e+005 2.261572677625e+005 2.103130471998e+005 2.219309770491e+005 0.000000000000e+000 2.914717877793e+005 2.627780317955e+005 8.437299872922e+004 6.038324343039e+004 0.000000000000e+000 0.000000000000e+000 0.000000000000e+000 0.000000000000e+000 0.000000000000e+000 0.000000000000e+000 2.446279770230e+005 1.456746425108e+001 3.385649766082e+004 1.959734927148e+005 1.984758407967e+005 1.816913025846e+005 1.873754106186e+005 1.625845093097e+005 1.569411409205e+005 1.351077448357e+005 1.403713280122e+005 2.917663607073e+005 0.000000000000e+000 0.000000000000e+000 0.000000000000e+000 0.000000000000e+000 2.950047610345e+005 0.000000000000e+000 1.191889638352e+005 1.486482635578e+005 1.743271547964e+005 1.893476761964e+005 1.000768419406e+005 7.141241766541e+004 2.406836212954e+004 0.000000000000e+000 2.293811521716e+005 0.000000000000e+000 2.448947497636e+005 0.000000000000e+000 2.550517272482e+005 0.000000000000e+000 0.000000000000e+000 0.000000000000e+000 0.000000000000e+000 0.000000000000e+000 0.00000