<?xml version="1.0"?>
<VTKFile type="UnstructuredGrid" version="0.1" byte_order="LittleEndian">
  <UnstructuredGrid>
    <Piece NumberOfPoints="2604" NumberOfCells="4910">
      <Points>
        <DataArray type="Float64" NumberOfComponents="3" format="ascii">
          0.000000000000e+000 0.000000000000e+000 0.000000000000e+000
          2.000000000000e+002 0.000000000000e+000 0.000000000000e+000
          2.000000000000e+002 2.000000000000e+001 0.000000000000e+000
          0.000000000000e+000 2.000000000000e+001 0.000000000000e+000
          1.492537313427e+000 0.000000000000e+000 0.000000000000e+000
          2.985074626854e+000 0.000000000000e+000 0.000000000000e+000
          4.477611940281e+000 0.000000000000e+000 0.000000000000e+000
          5.970149253708e+000 0.000000000000e+000 0.000000000000e+000
          7.462686567135e+000 0.000000000000e+000 0.000000000000e+000
          8.955223880561e+000 0.000000000000e+000 0.000000000000e+000
          1.044776119399e+001 0.000000000000e+000 0.000000000000e+000
          1.194029850741e+001 0.000000000000e+000 0.000000000000e+000
          1.343283582084e+001 0.000000000000e+000 0.000000000000e+000
          1.492537313427e+001 0.000000000000e+000 0.000000000000e+000
          1.641791044770e+001 0.000000000000e+000 0.000000000000e+000
          1.791044776112e+001 0.000000000000e+000 0.000000000000e+000
          1.940298507455e+001 0.000000000000e+000 0.000000000000e+000
          2.089552238798e+001 0.000000000000e+000 0.000000000000e+000
          2.238805970141e+001 0.000000000000e+000 0.000000000000e+000
          2.388059701484e+001 0.000000000000e+000 0.000000000000e+000
          2.537313432826e+001 0.000000000000e+000 0.000000000000e+000
          2.686567164169e+001 0.000000000000e+000 0.000000000000e+000
          2.835820895511e+001 0.000000000000e+000 0.000000000000e+000
          2.985074626854e+001 0.000000000000e+000 0.000000000000e+000
          3.134328358196e+001 0.000000000000e+000 0.000000000000e+000
          3.283582089539e+001 0.000000000000e+000 0.000000000000e+000
          3.432835820881e+001 0.000000000000e+000 0.000000000000e+000
          3.582089552224e+001 0.000000000000e+000 0.000000000000e+000
          3.731343283566e+001 0.000000000000e+000 0.000000000000e+000
          3.880597014909e+001 0.000000000000e+000 0.000000000000e+000
          4.029850746251e+001 0.000000000000e+000 0.000000000000e+000
          4.179104477594e+001 0.000000000000e+000 0.000000000000e+000
          4.328358208936e+001 0.000000000000e+000 0.000000000000e+000
          4.477611940279e+001 0.000000000000e+000 0.000000000000e+000
          4.626865671621e+001 0.000000000000e+000 0.000000000000e+000
          4.776119402964e+001 0.000000000000e+000 0.000000000000e+000
          4.925373134306e+001 0.000000000000e+000 0.000000000000e+000
          5.074626865649e+001 0.000000000000e+000 0.000000000000e+000
          5.223880596991e+001 0.000000000000e+000 0.000000000000e+000
          5.373134328334e+001 0.000000000000e+000 0.000000000000e+000
          5.522388059676e+001 0.000000000000e+000 0.000000000000e+000
          5.671641791019e+001 0.000000000000e+000 0.000000000000e+000
          5.820895522361e+001 0.000000000000e+000 0.000000000000e+000
          5.970149253704e+001 0.000000000000e+000 0.000000000000e+000
          6.119402985046e+001 0.000000000000e+000 0.000000000000e+000
          6.268656716389e+001 0.000000000000e+000 0.000000000000e+000
          6.417910447732e+001 0.000000000000e+000 0.000000000000e+000
          6.567164179075e+001 0.000000000000e+000 0.000000000000e+000
          6.716417910418e+001 0.000000000000e+000 0.000000000000e+000
          6.865671641761e+001 0.000000000000e+000 0.000000000000e+000
          7.014925373104e+001 0.000000000000e+000 0.000000000000e+000
          7.164179104447e+001 0.000000000000e+000 0.000000000000e+000
          7.313432835790e+001 0.000000000000e+000 0.000000000000e+000
          7.462686567133e+001 0.000000000000e+000 0.000000000000e+000
          7.611940298476e+001 0.000000000000e+000 0.000000000000e+000
          7.761194029819e+001 0.000000000000e+000 0.000000000000e+000
          7.910447761162e+001 0.000000000000e+000 0.000000000000e+000
          8.059701492505e+001 0.000000000000e+000 0.000000000000e+000
          8.208955223848e+001 0.000000000000e+000 0.000000000000e+000
          8.358208955191e+001 0.000000000000e+000 0.000000000000e+000
          8.507462686534e+001 0.000000000000e+000 0.000000000000e+000
          8.656716417877e+001 0.000000000000e+000 0.000000000000e+000
          8.805970149220e+001 0.000000000000e+000 0.000000000000e+000
          8.955223880563e+001 0.000000000000e+000 0.000000000000e+000
          9.104477611907e+001 0.000000000000e+000 0.000000000000e+000
          9.253731343250e+001 0.000000000000e+000 0.000000000000e+000
          9.402985074593e+001 0.000000000000e+000 0.000000000000e+000
          9.552238805936e+001 0.000000000000e+000 0.000000000000e+000
          9.701492537279e+001 0.000000000000e+000 0.000000000000e+000
          9.850746268622e+001 0.000000000000e+000 0.000000000000e+000
          9.999999999965e+001 0.000000000000e+000 0.000000000000e+000
          1.014925373131e+002 0.000000000000e+000 0.000000000000e+000
          1.029850746265e+002 0.000000000000e+000 0.000000000000e+000
          1.044776119399e+002 0.000000000000e+000 0.000000000000e+000
          1.059701492534e+002 0.000000000000e+000 0.000000000000e+000
          1.074626865668e+002 0.000000000000e+000 0.000000000000e+000
          1.089552238802e+002 0.000000000000e+000 0.000000000000e+000
          1.104477611937e+002 0.000000000000e+000 0.000000000000e+000
          1.119402985071e+002 0.000000000000e+000 0.000000000000e+000
          1.134328358205e+002 0.000000000000e+000 0.000000000000e+000
          1.149253731340e+002 0.000000000000e+000 0.000000000000e+000
          1.164179104474e+002 0.000000000000e+000 0.000000000000e+000
          1.179104477608e+002 0.000000000000e+000 0.000000000000e+000
          1.194029850742e+002 0.000000000000e+000 0.000000000000e+000
          1.208955223877e+002 0.000000000000e+000 0.000000000000e+000
          1.223880597011e+002 0.000000000000e+000 0.000000000000e+000
          1.238805970145e+002 0.000000000000e+000 0.000000000000e+000
          1.253731343280e+002 0.000000000000e+000 0.000000000000e+000
          1.268656716414e+002 0.000000000000e+000 0.000000000000e+000
          1.283582089548e+002 0.000000000000e+000 0.000000000000e+000
          1.298507462683e+002 0.000000000000e+000 0.000000000000e+000
          1.313432835817e+002 0.000000000000e+000 0.000000000000e+000
          1.328358208952e+002 0.000000000000e+000 0.000000000000e+000
          1.343283582086e+002 0.000000000000e+000 0.000000000000e+000
          1.358208955220e+002 0.000000000000e+000 0.000000000000e+000
          1.373134328355e+002 0.000000000000e+000 0.000000000000e+000
          1.388059701489e+002 0.000000000000e+000 0.000000000000e+000
          1.402985074624e+002 0.000000000000e+000 0.000000000000e+000
          1.417910447758e+002 0.000000000000e+000 0.000000000000e+000
          1.432835820892e+002 0.000000000000e+000 0.000000000000e+000
          1.447761194027e+002 0.000000000000e+000 0.000000000000e+000
          1.462686567161e+002 0.000000000000e+000 0.000000000000e+000
          1.477611940296e+002 0.000000000000e+000 0.000000000000e+000
          1.492537313430e+002 0.000000000000e+000 0.000000000000e+000
          1.507462686564e+002 0.000000000000e+000 0.000000000000e+000
          1.522388059699e+002 0.000000000000e+000 0.000000000000e+000
          1.537313432833e+002 0.000000000000e+000 0.000000000000e+000
          1.552238805968e+002 0.000000000000e+000 0.000000000000e+000
          1.567164179102e+002 0.000000000000e+000 0.000000000000e+000
          1.582089552237e+002 0.000000000000e+000 0.000000000000e+000
          1.597014925371e+002 0.000000000000e+000 0.000000000000e+000
          1.611940298505e+002 0.000000000000e+000 0.000000000000e+000
          1.626865671640e+002 0.000000000000e+000 0.000000000000e+000
          1.641791044774e+002 0.000000000000e+000 0.000000000000e+000
          1.656716417909e+002 0.000000000000e+000 0.000000000000e+000
          1.671641791043e+002 0.000000000000e+000 0.000000000000e+000
          1.686567164177e+002 0.000000000000e+000 0.000000000000e+000
          1.701492537312e+002 0.000000000000e+000 0.000000000000e+000
          1.716417910446e+002 0.000000000000e+000 0.000000000000e+000
          1.731343283581e+002 0.000000000000e+000 0.000000000000e+000
          1.746268656715e+002 0.000000000000e+000 0.000000000000e+000
          1.761194029849e+002 0.000000000000e+000 0.000000000000e+000
          1.776119402984e+002 0.000000000000e+000 0.000000000000e+000
          1.791044776118e+002 0.000000000000e+000 0.000000000000e+000
          1.805970149253e+002 0.000000000000e+000 0.000000000000e+000
          1.820895522387e+002 0.000000000000e+000 0.000000000000e+000
          1.835820895521e+002 0.000000000000e+000 0.000000000000e+000
          1.850746268656e+002 0.000000000000e+000 0.000000000000e+000
          1.865671641790e+002 0.000000000000e+000 0.000000000000e+000
          1.880597014925e+002 0.000000000000e+000 0.000000000000e+000
          1.895522388059e+002 0.000000000000e+000 0.000000000000e+000
          1.910447761194e+002 0.000000000000e+000 0.000000000000e+000
          1.925373134328e+002 0.000000000000e+000 0.000000000000e+000
          1.940298507462e+002 0.000000000000e+000 0.000000000000e+000
          1.955223880597e+002 0.000000000000e+000 0.000000000000e+000
          1.970149253731e+002 0.000000000000e+000 0.000000000000e+000
          1.985074626866e+002 0.000000000000e+000 0.000000000000e+000
          2.000000000000e+002 1.428571428570e+000 0.000000000000e+000
          2.000000000000e+002 2.857142857140e+000 0.000000000000e+000
[...]
      <PointData Scalars="Capillary_Pressure">
        <DataArray type="Float64" Name="Capillary_Pressure" format="ascii">
          3.857768546812e+005 0.000000000000e+000 0.000000000000e+000 3.857791335833e+005 3.860042153943e+005 3.832731740994e+005 3.824110582865e+005 3.804802493430e+005 3.802073641520e+005 3.783130047751e+005 3.762855514036e+005 3.762095703387e+005 3.740413611937e+005 3.738734502227e+005 3.719940021659e+005 3.696234203370e+005 3.696674760567e+005 3.676497290074e+005 3.672404817336e+005 3.651362345456e+005 3.617418102581e+005 3.615357357137e+005 3.609698021719e+005 3.579645995038e+005 3.576283530104e+005 3.554423384297e+005 3.548165895078e+005 3.516751791215e+005 3.511736031894e+005 3.491076360354e+005 3.484687787189e+005 3.452684832335e+005 3.447425448568e+005 3.427638548109e+005 3.420261070311e+005 3.384258077018e+005 3.383393876339e+005 3.357295092581e+005 3.333385324765e+005 3.330508310980e+005 3.322535213093e+005 3.290950788800e+005 3.264188469672e+005 3.260486013795e+005 3.223830650387e+005 3.219147886359e+005 3.190854652340e+005 3.185927855629e+005 3.161520678455e+005 3.152432599930e+005 3.111542986116e+005 3.109635779783e+005 3.071056294503e+005 3.065453303335e+005 3.025823114491e+005 3.012130617093e+005 2.990268317862e+005 2.985589443340e+005 2.974289407009e+005 2.936355652504e+005 2.904129046464e+005 2.900379696040e+005 2.859856216632e+005 2.852852258005e+005 2.823576248557e+005 2.789776826942e+005 2.759651769221e+005 2.753428433635e+005 2.707925488187e+005 2.691870103549e+005 2.665743851139e+005 2.634197534733e+005 2.625569312971e+005 2.596781511262e+005 2.559410845176e+005 2.526113414654e+005 2.520607352764e+005 2.485138304554e+005 2.452684000491e+005 2.439519367906e+005 2.382442220304e+005 2.348649737119e+005 2.317201534526e+005 2.281139539420e+005 2.245767661373e+005 2.208458399307e+005 2.201143719168e+005 2.165994510123e+005 2.127091305052e+005 2.091675668356e+005 2.019457184665e+005 1.980720126030e+005 1.941405214808e+005 1.897810043395e+005 1.871360802526e+005 1.795613032239e+005 1.750364795009e+005 1.725479508404e+005 1.643930163426e+005 1.581621171007e+005 1.550845694449e+005 1.449495981929e+005 1.384094181739e+005 1.313233145490e+005 1.225496462447e+005 1.133285619714e+005 1.032534604908e+005 9.104249097433e+004 7.757187882067e+004 6.074667653851e+004 3.884449333175e+004 7.436107590943e+003 0.000000000000e+000 0.000000000000e+000 0.000000000000e+000 0.000000000000e+000 0.000000000000e+000 0.000000000000e+000 0.000000000000e+000 0.000000000000e+000 0.000000000000e+000 0.000000000000e+000 0.000000000000e+000 0.000000000000e+000 0.000000000000e+000 0.000000000000e+000 0.000000000000e+000 0.000000000000e+000 0.000000000000e+000 0.000000000000e+000 0.000000000000e+000 0.000000000000e+000 0.000000000000e+000 0.000000000000e+000 0.000000000000e+000 0.000000000000e+000 0.000000000000e+000 0.000000000000e+000 0.000000000000e+000 0.000000000000e+000 0.000000000000e+000 0.000000000000e+000 0.000000000000e+000 0.000000000000e+000 0.000000000000e+000 0.000000000000e+000 0.000000000000e+000 0.000000000000e+000 0.000000000000e+000 0.000000000000e+000 0.000000000000e+000 0.000000000000e+000 0.000000000000e+000 0.000000000000e+000 0.000000000000e+000 0.000000000000e+000 0.000000000000e+000 0.000000000000e+000 0.000000000000e+000 0.000000000000e+000 0.000000000000e+000 0.000000000000e+000 0.000000000000e+000 0.000000000000e+000 0.000000000000e+000 0.000000000000e+000 0.000000000000e+000 0.000000000000e+000 0.000000000000e+000 0.000000000000e+000 0.000000000000e+000 0.000000000000e+000 0.000000000000e+000 0.000000000000e+000 0.000000000000e+000 7.431393601594e+003 3.883297319349e+004 6.071801319007e+004 7.756269148569e+004 9.102770070003e+004 1.032566476394e+005 1.133497275468e+005 1.225378880437e+005 1.313210383041e+005 1.384029285403e+005 1.449426767602e+005 1.550808732492e+005 1.581540628600e+005 1.643765560925e+005 1.725408631655e+005 1.750336248006e+005 1.795647741129e+005 1.871275655219e+005 1.897763274867e+005 1.941309170913e+005 1.980525661483e+005 2.019251569742e+005 2.091613424589e+005 2.127137647883e+005 2.166023629582e+005 2.201137792393e+005 2.208426454933e+005 2.245861653392e+005 2.281234829639e+005 2.317108408940e+005 2.348685324740e+005 2.382254871891e+005 2.439414403181e+005 2.452517344507e+005 2.485176798166e+005 2.520463397606e+005 2.525986087436e+005 2.559275277801e+005 2.596671183257e+005 2.625711830439e+005 2.659179325852e+005 2.665733136767e+005 2.691696806857e+005 2.707702620934e+005 2.753557793429e+005 2.785364497702e+005 2.789636554905e+005 2.822930234258e+005 2.852872082829e+005 2.859880401227e+005 2.900395066539e+005 2.904198669437e+005 2.936648870566e+005 2.974251527064e+005 2.985643403927e+005 2.990409710034e+005 3.012370861405e+005 3.055807944761e+005 3.065666056648e+005 3.071065617255e+005 3.109681017384e+005 3.111953366691e+005 3.152244163676e+005 3.161229518146e+005 3.185787518355e+005 3.190630877663e+005 3.218974807557e+005 3.251581083113e+005 3.260475904759e+005 3.264077045215e+005 3.290881831109e+005 3.322572247583e+005 3.330530210728e+005 3.333309993426e+005 3.357316156066e+005 3.383401209946e+005 3.384241930215e+005 3.420227241432e+005 3.427601215158e+005 3.447399301631e+005 3.452715588648e+005 3.484666016299e+005 3.491066802136e+005 3.511726910466e+005 3.516693687962e+005 3.548176721329e+005 3.554367321087e+005 3.576287534727e+005 3.579684746460e+005 3.609693821911e+005 3.615394543807e+005 3.617504531477e+005 3.651265429070e+005 3.672376633729e+005 3.676511022109e+005 3.696753421434e+005 3.696170406363e+005 3.719799940310e+005 3.720380697573e+005 3.740588760849e+005 3.762054811565e+005 3.762799361185e+005 3.783193273624e+005 3.802137873931e+005 3.804938905125e+005 3.823702240925e+005 3.832752002431e+005 3.860037386211e+005 3.857783355411e+005 3.857758826975e+005 3.857795426954e+005 3.857782327031e+005 3.857762190094e+005 3.857769755774e+005 3.857771565220e+005 3.857757629275e+005 3.857764249375e+005 3.857778294761e+005 3.857779429171e+005 3.857751350922e+005 3.857760793418e+005 0.000000000000e+000 3.782951389538e+005 0.000000000000e+000 0.000000000000e+000 5.186477958585e+004 1.352507924064e+005 1.795920083200e+005 3.613287452272e+005 2.087887746021e+005 3.491418128484e+005 3.386067962862e+005 3.263133114111e+005 3.061983726168e+005 2.906510999580e+005 2.748171919468e+005 2.555598521938e+005 2.352062957360e+005 3.698643841507e+005 3.161410244044e+005 2.208288356887e+005 2.238485959316e+005 2.452477627054e+005 2.659211396494e+005 2.822783703459e+005 2.985653888776e+005 0.000000000000e+000 0.000000000000e+000 1.020458907983e+005 2.985617988851e+005 2.824637352910e+005 2.657705418001e+005 2.448867213451e+005 1.579693689089e+005 1.941291018650e+005 3.554514519319e+005 3.448161179032e+005 3.329809496575e+005 1.940672905821e+005 1.581373669304e+005 1.032359539846e+005 0.000000000000e+000 0.000000000000e+000 3.330795281332e+005 3.447443886359e+005 3.554286299784e+005 0.000000000000e+000 0.000000000000e+000 3.191823354245e+005 3.115162733385e+005 3.738716247240e+005 3.651267314269e+005 0.000000000000e+000 3.804883579970e+005 0.000000000000e+000 3.804960796123e+005 3.736299583254e+005 3.651735746003e+005 3.220456361719e+005 3.107261383025e+005 0.000000000000e+000 2.351960240610e+005 0.000000000000e+000 2.555541404712e+005 2.748080667818e+005 2.906362062634e+005 3.058226064582e+005 2.088395418617e+005 5.021064633378e+004 1.343592028778e+005 1.795489522372e+005 3.491803828206e+005 3.386755217387e+005 2.097736338364e+005 1.797053817639e+005 1.351725688652e+005 5.077345825942e+004 2.906508520338e+005 2.748029449553e+005 2.555765762435e+005 0.000000000000e+000 2.351852842826e+005 0.000000000000e+000 3.263810278957e+005 3.386311510398e+005 3.491738715241e+005 3.613308396859e+005 0.000000000000e+000 0.000000000000e+000 3.762783748669e+005 3.609578707044e+005 3.024017865404e+005 3.285805032813e+005 0.000000000000e+000 3.824246190630e+005 3.698501210999e+005 3.782592845577e+005 3.698663017261e+005 3.161920566143e+005 3.216557630288e+005 3.112141590324e+005 3.740517908864e+005 3.650940442818e+005 3.161130200962e+005 0.000000000000e+000 9.300723928684e+004 0.000000000000e+000 1.551976351062e+005 0.000000000000e+000 1.902056160935e+005 2.441539284178e+005 2.791398256680e+005 2.945811342060e+005 2.626747833216e+005 3.548339331833e+005 3.332765272445e+005 3.447808992762e+005 2.244577445678e+005 3.161456196424e+005 0.000000000000e+000 3.832624507969e+005 0.000000000000e+000 3.832576232162e+005 2.396250408145e+005 2.598069466852e+005 2.791764148660e+005 2.940907170698e+005 2.019622099461e+005 2.279552288445e+005 2.166668668524e+005 1.690582840232e+005 3.292868097446e+005 1.168940060881e+005 3.425478537138e+005 0.000000000000e+000 3.519613418147e+005 0.000000000000e+000 0.000000000000e+000 0.000000000000e+000 0.000000000000e+000 0.000000000000e+000 1.177038396467e+005 8.688169895466e+004 1.691993384257e+005 1.517777675775e+005 3.518987115733e+005 1.906368708749e+005 2.019807606188e+005 3.425007322020e+005 3.454602988908e+005 2.940771533331e+005 2.791543851795e+005 2.597277901590e+005 2.856138661025e+005 2.669221698194e+005 2.435586922691e+005 2.481713828750e+005 3.333806820178e+005 2.166489676205e+005 2.276980296678e+005 0.000000000000e+000 3.577980881200e+005 0.000000000000e+000 3.453870945491e+005 8.889770774423e+004 3.334637961429e+005 1.511814892359e+005 3.014364986768e+005 2.857454948100e+005 2.670594469890e+005 2.513402103165e+005 1.907904361854e+005 3.698454048635e+005 0.000000000000e+000 0.000000000000e+000 3.105677351818e+005 3.246048523394e+005 3.649419459646e+005 2.167648216294e+005 2.669055837562e+005 2.481186266361e+005 2.855690871243e+005 3.014170314087e+005 3.577687753891e+005 3.425997540274e+005 0.000000000000e+000 3.293196406002e+005 0.000000000000e+000 1.183442787634e+005 2.018439411955e+005 1.652858493049e+005 3.576351393143e+005 0.000000000000e+000 0.000000000000e+000 3.147306094174e+005 3.740435325792e+005 0.000000000000e+000 2.164599334531e+005 2.053345455975e+005 1.726567906694e+005 3.289068453641e+005 1.233127612765e+005 3.419811881951e+005 2.860527482902e+005 2.692271573329e+005 2.521248832623e+005 0.000000000000e+000 3.579639650830e+005 0.000000000000e+000 3.674277353928e+005 3.016579815369e+005 0.000000000000e+000 0.000000000000e+000 0.000000000000e+000 2.989178641907e+005 3.323439567420e+005 3.070336847143e+005 3.253017649938e+005 3.802214760403e+005 3.617068875147e+005 3.761740556948e+005 3.719120306415e+005 3.617016039877e+005 2.382588137368e+005 2.596825649377e+005 2.785643987779e+005 2.936776064230e+005 5.550178753197e+003 3.516787250788e+005 0.000000000000e+000 2.281773989411e+005 1.871506374098e+005 8.889996758425e+003 1.448368901391e+005 0.000000000000e+000 7.751009486864e+004 2.388123797097e+005 2.596991298522e+005 2.785016732590e+005 2.936228303125e+005 3.516136164766e+005 3.357039269900e+005 3.484810914594e+005 3.484802155409e+005 7.669748107426e+004 3.352841204359e+005 1.448525645515e+005 1.870645113964e+005 2.281537766353e+005 0.000000000000e+000 0.000000000000e+000 3.832598714549e+005 3.832661563300e+005 0.000000000000e+000 3.797810321661e+005 0.000000000000e+000 0.000000000000e+000 3.783600066717e+005 0.000000000000e+000 3.761912470579e+005 3.797926764986e+005 3.254888638024e+005 3.064436533309e+005 3.611462791364e+005 3.760987834396e+005 3.260997499903e+005 3.675379681573e+005 3.676800237767e+005 3.064565143229e+005 3.718084244725e+005 3.216013401577e+005 3.148660689029e+005 3.719691667147e+005 3.423043416880e+005 2.015319259160e+005 1.684779305230e+005 1.205055244091e+005 0.000000000000e+000 0.000000000000e+000 2.168980948213e+005 3.016848446703e+005 2.854318001746e+005 2.696969479701e+005 2.517792490924e+005 3.189895142898e+005 3.676161485162e+005 3.117681850973e+005 3.185655809270e+005 0.000000000000e+000 0.000000000000e+000 3.575171219530e+005 3.317172518018e+005 3.783904184875e+005 3.804459884662e+005 0.000000000000e+000 3.718653386345e+005 2.353224163890e+005 2.585544865263e+005 2.754074679998e+005 2.904562978131e+005 2.091854380335e+005 2.095834663291e+005 2.316447016121e+005 1.749750962942e+005 1.326690994686e+005 3.264376120865e+005 3.729075970839e+004 3.387851553301e+005 0.000000000000e+000 3.511937532711e+005 0.000000000000e+000 0.000000000000e+000 3.691983715015e+004 1.326043772074e+005 1.761073491170e+005 3.512096993574e+005 3.387946127143e+005 2.904294400610e+005 2.754185787676e+005 2.585651016205e+005 0.000000000000e+000 3.609507314526e+005 3.025024096048e+005 0.000000000000e+000 0.000000000000e+000 0.000000000000e+000 3.581673008408e+005 3.618052741584e+005 3.761771884369e+005 3.151591926300e+005 0.000000000000e+000 0.000000000000e+000 1.083065487847e+005 1.615928818440e+005 1.983139746927e+005 3.555152948780e+005 3.426916038435e+005 3.326117569047e+005 2.452954472083e+005 2.824750575181e+005 2.989880365041e+005 2.665370735657e+005 2.204946862368e+005 0.000000000000e+000 0.000000000000e+000 0.000000000000e+000 0.000000000000e+000 1.356796371659e+005 1.794384567233e+005 3.387024566144e+005 2.904837482253e+005 2.745007675020e+005 2.553550994966e+005 3.826453919579e+005 3.186355329825e+005 2.095168850392e+005 2.092043878971e+005 3.058400704819e+005 0.000000000000e+000 3.858460006666e+005 3.289165092528e+005 3.014094695277e+005 1.941827826958e+005 1.582166759969e+005 1.032910272071e+005 0.000000000000e+000 0.000000000000e+000 3.330262231644e+005 3.447262499120e+005 3.554399405349e+005 2.659191373058e+005 2.452553658109e+005 2.985640655833e+005 2.823550948412e+005 0.000000000000e+000 0.000000000000e+000 2.823547246520e+005 2.659027506526e+005 1.032410508229e+005 2.452582036835e+005 1.581676592133e+005 1.941049515585e+005 3.447502812080e+005 2.207970495176e+005 2.208551258610e+005 3.674048557759e+005 3.224992532657e+005 3.696245179197e+005 2.993814823106e+005 3.159490570673e+005 0.000000000000e+000 0.000000000000e+000 3.109786057591e+005 3.074907204040e+005 3.155792998920e+005 2.049669007579e+005 2.358019170036e+005 2.317590878443e+005 2.123070247995e+005 2.518803428881e+005 2.703526494953e+005 2.896257141194e+005 1.823642122062e+005 3.489018598148e+005 3.380052091318e+005 0.000000000000e+000 6.858718798868e+004 1.415423637629e+005 0.000000000000e+000 3.488994970364e+005 6.864754708724e+004 3.380021892503e+005 2.896263276938e+005 2.703323780153e+005 2.522637656719e+005 1.415480550086e+005 1.823691867487e+005 3.827405304442e+005 3.760530013792e+005 0.000000000000e+000 3.827331550690e+005 2.351569645354e+005 2.352500072209e+005 3.491848364722e+005 3.491892620031e+005 4.973910618678e+004 5.021681690830e+004 0.000000000000e+000 3.717684709874e+005 3.782920564156e+005 3.609338564362e+005 3.698769660965e+005 0.000000000000e+000 3.858493712752e+005 0.000000000000e+000 3.858472540175e+005 3.738915869685e+005 0.000000000000e+000 0.000000000000e+000 1.797381647713e+005 1.351980469827e+005 3.386264581436e+005 2.554457989534e+005 2.906893178164e+005 2.748574029652e+005 0.000000000000e+000 3.652317040131e+005 3.651897086319e+005 3.761923987028e+005 3.068308545132e+005 3.256473908699e+005 3.762124425616e+005 3.615478577757e+005 3.553374731359e+005 3.217480569484e+005 3.646818163662e+005 0.000000000000e+000 0.000000000000e+000 3.246774337617e+005 3.072401555554e+005 0.000000000000e+000 3.265488717474e+005 3.070997803370e+005 3.110547185356e+005 0.000000000000e+000 3.577941255250e+005 0.000000000000e+000 2.860491783829e+005 2.692420383662e+005 2.521193620621e+005 2.132522122967e+005 3.425271330007e+005 1.169623135979e+005 3.316470933325e+005 1.691165586848e+005 2.054419175912e+005 0.000000000000e+000 3.676682420173e+005 3.118562796030e+005 3.184281611528e+005 3.263956604962e+005 3.720027060640e+005 0.000000000000e+000 3.858507644449e+005 0.000000000000e+000 3.859907024908e+005 3.784284862684e+005 3.613097097091e+005 3.162373492721e+005 3.217319212120e+005 0.000000000000e+000 3.332773412934e+005 2.981724336446e+005 3.652004695727e+005 3.067593995820e+005 3.697358256809e+005 1.906893824908e+005 1.506579366843e+005 8.780388119320e+004 3.335155163717e+005 3.454602957022e+005 7.576259577927e+004 0.000000000000e+000 1.447385424821e+005 1.105122425150e+004 1.869458282333e+005 3.485165319294e+005 3.353221561024e+005 3.511166583322e+005 2.935805552650e+005 2.595878168896e+005 2.758671426752e+005 2.390058139826e+005 0.000000000000e+000 0.000000000000e+000 3.519215369225e+005 2.277944520281e+005 2.941643088372e+005 2.792604697605e+005 2.598753090096e+005 2.435850161777e+005 2.282457513971e+005 2.208303637799e+005 2.452479346650e+005 2.823559800727e+005 2.659311620010e+005 2.985675918332e+005 0.000000000000e+000 0.000000000000e+000 1.031997675721e+005 1.941260038042e+005 1.581308459505e+005 3.554327493459e+005 3.447498646470e+005 3.330543482888e+005 3.257043419179e+005 3.616892912181e+005 0.000000000000e+000 3.784222257960e+005 2.283877518521e+005 2.388720129705e+005 2.594870963048e+005 2.782865202880e+005 2.934675072495e+005 1.641961112696e+004 0.000000000000e+000 3.510183028806e+005 7.407581889062e+004 1.446042866778e+005 1.867993067041e+005 3.487093432029e+005 3.353658325274e+005 3.158078838511e+005 0.000000000000e+000 3.186993300936e+005 0.000000000000e+000 2.239840309310e+005 2.207267523664e+005 2.450440480180e+005 2.656046024347e+005 2.821210417007e+005 2.982459183489e+005 0.000000000000e+000 0.000000000000e+000 1.045970507851e+005 1.619665027934e+005 1.936781512982e+005 3.446392196242e+005 1.942475881141e+005 2.822283296095e+005 2.635639207275e+005 2.450969158227e+005 1.582650417461e+005 1.033349761698e+005 3.329914701518e+005 0.000000000000e+000 3.447041725566e+005 0.000000000000e+000 3.554368872102e+005 3.698647968775e+005 0.000000000000e+000 3.550428851007e+005 0.000000000000e+000 2.791899357845e+005 2.442195531167e+005 2.625593280597e+005 2.946186300601e+005 3.446724468903e+005 9.411266916642e+004 3.329818300254e+005 1.539853554618e+005 1.904366116399e+005 2.242447692759e+005 3.783307124108e+005 0.000000000000e+000 3.858507637089e+005 0.000000000000e+000 0.000000000000e+000 0.000000000000e+000 3.188578840201e+005 3.120157191291e+005 3.653481808471e+005 3.553739881401e+005 0.000000000000e+000 3.779383859622e+005 0.000000000000e+000 0.000000000000e+000 3.614619521715e+005 2.055132366963e+005 1.727932429632e+005 3.290067684149e+005 1.268260251241e+005 3.419217296670e+005 2.520294499670e+005 2.692341453824e+005 2.859783782839e+005 2.132674833326e+005 0.000000000000e+000 3.580511839939e+005 0.000000000000e+000 3.264108328302e+005 3.059087082470e+005 3.191097633864e+005 3.740152914965e+005 3.761737625389e+005 0.000000000000e+000 3.824533495201e+005 0.000000000000e+000 3.824535796134e+005 2.981214991820e+005 3.332602565238e+005 3.014206242488e+005 3.718959778664e+005 0.000000000000e+000 3.826544233303e+005 3.221062012960e+005 3.114422993812e+005 3.192125650535e+005 3.653708101527e+005 3.739130854430e+005 3.697118554110e+005 3.294234114042e+005 3.739190225644e+005 3.677124348968e+005 3.190040791830e+005 3.762876729709e+005 3.741017216335e+005 3.156981833654e+005 3.250736260882e+005 3.112639318646e+005 3.218229158426e+005 0.000000000000e+000 3.802196590066e+005 3.579136854137e+005 2.204295460572e+005 2.123765105150e+005 0.000000000000e+000 0.000000000000e+000 0.000000000000e+000 0.000000000000e+000 1.234081269301e+005 1.727378180763e+005 3.419381400197e+005 1.977386256152e+005 2.049039083429e+005 2.989941284663e+005 3.015440399809e+005 2.852154104575e+005 2.895609232165e+005 2.702581269013e+005 2.661152687425e+005 2.485107400624e+005 2.525761286896e+005 3.804804283065e+005 0.000000000000e+000 0.000000000000e+000 0.000000000000e+000 0.000000000000e+000 3.827664299948e+005 0.000000000000e+000 2.394475602327e+005 2.596658828895e+005 2.790635357630e+005 2.934015252574e+005 2.279628736495e+005 2.162096752109e+005 2.021021615977e+005 1.692768470866e+005 3.291888442750e+005 1.177634596950e+005 3.424650627357e+005 0.000000000000e+000 3.518899047524e+005 0.000000000000e+000 0.000000000000e+000 0.000000000000e+000 0.000000000000e+000 1.177850694397e+005 1.69275