<?xml version="1.0"?>
<VTKFile type="UnstructuredGrid" version="0.1" byte_order="LittleEndian">
  <UnstructuredGrid>
    <Piece NumberOfPoints="2604" NumberOfCells="4910">
      <Points>
        <DataArray type="Float64" NumberOfComponents="3" format="ascii">
          0.000000000000e+000 0.000000000000e+000 0.000000000000e+000
          2.000000000000e+002 0.000000000000e+000 0.000000000000e+000
          2.000000000000e+002 2.000000000000e+001 0.000000000000e+000
          0.000000000000e+000 2.000000000000e+001 0.000000000000e+000
          1.492537313427e+000 0.000000000000e+000 0.000000000000e+000
          2.985074626854e+000 0.000000000000e+000 0.000000000000e+000
          4.477611940281e+000 0.000000000000e+000 0.000000000000e+000
          5.970149253708e+000 0.000000000000e+000 0.000000000000e+000
          7.462686567135e+000 0.000000000000e+000 0.000000000000e+000
          8.955223880561e+000 0.000000000000e+000 0.000000000000e+000
          1.044776119399e+001 0.000000000000e+000 0.000000000000e+000
          1.194029850741e+001 0.000000000000e+000 0.000000000000e+000
          1.343283582084e+001 0.000000000000e+000 0.000000000000e+000
          1.492537313427e+001 0.000000000000e+000 0.000000000000e+000
          1.641791044770e+001 0.000000000000e+000 0.000000000000e+000
          1.791044776112e+001 0.000000000000e+000 0.000000000000e+000
          1.940298507455e+001 0.000000000000e+000 0.000000000000e+000
          2.089552238798e+001 0.000000000000e+000 0.000000000000e+000
          2.238805970141e+001 0.000000000000e+000 0.000000000000e+000
          2.388059701484e+001 0.000000000000e+000 0.000000000000e+000
          2.537313432826e+001 0.000000000000e+000 0.000000000000e+000
          2.686567164169e+001 0.000000000000e+000 0.000000000000e+000
          2.835820895511e+001 0.000000000000e+000 0.000000000000e+000
          2.985074626854e+001 0.000000000000e+000 0.000000000000e+000
          3.134328358196e+001 0.000000000000e+000 0.000000000000e+000
          3.283582089539e+001 0.000000000000e+000 0.000000000000e+000
          3.432835820881e+001 0.000000000000e+000 0.000000000000e+000
          3.582089552224e+001 0.000000000000e+000 0.000000000000e+000
          3.731343283566e+001 0.000000000000e+000 0.000000000000e+000
          3.880597014909e+001 0.000000000000e+000 0.000000000000e+000
          4.029850746251e+001 0.000000000000e+000 0.000000000000e+000
          4.179104477594e+001 0.000000000000e+000 0.000000000000e+000
          4.328358208936e+001 0.000000000000e+000 0.000000000000e+000
          4.477611940279e+001 0.000000000000e+000 0.000000000000e+000
          4.626865671621e+001 0.000000000000e+000 0.000000000000e+000
          4.776119402964e+001 0.000000000000e+000 0.000000000000e+000
          4.925373134306e+001 0.000000000000e+000 0.000000000000e+000
          5.074626865649e+001 0.000000000000e+000 0.000000000000e+000
          5.223880596991e+001 0.000000000000e+000 0.000000000000e+000
          5.373134328334e+001 0.000000000000e+000 0.000000000000e+000
          5.522388059676e+001 0.000000000000e+000 0.000000000000e+000
          5.671641791019e+001 0.000000000000e+000 0.000000000000e+000
          5.820895522361e+001 0.000000000000e+000 0.000000000000e+000
          5.970149253704e+001 0.000000000000e+000 0.000000000000e+000
          6.119402985046e+001 0.000000000000e+000 0.000000000000e+000
          6.268656716389e+001 0.000000000000e+000 0.000000000000e+000
          6.417910447732e+001 0.000000000000e+000 0.000000000000e+000
          6.567164179075e+001 0.000000000000e+000 0.000000000000e+000
          6.716417910418e+001 0.000000000000e+000 0.000000000000e+000
          6.865671641761e+001 0.000000000000e+000 0.000000000000e+000
          7.014925373104e+001 0.000000000000e+000 0.000000000000e+000
          7.164179104447e+001 0.000000000000e+000 0.000000000000e+000
          7.313432835790e+001 0.000000000000e+000 0.000000000000e+000
          7.462686567133e+001 0.000000000000e+000 0.000000000000e+000
          7.611940298476e+001 0.000000000000e+000 0.000000000000e+000
          7.761194029819e+001 0.000000000000e+000 0.000000000000e+000
          7.910447761162e+001 0.000000000000e+000 0.000000000000e+000
          8.059701492505e+001 0.000000000000e+000 0.000000000000e+000
          8.208955223848e+001 0.000000000000e+000 0.000000000000e+000
          8.358208955191e+001 0.000000000000e+000 0.000000000000e+000
          8.507462686534e+001 0.000000000000e+000 0.000000000000e+000
          8.656716417877e+001 0.000000000000e+000 0.000000000000e+000
          8.805970149220e+001 0.000000000000e+000 0.000000000000e+000
          8.955223880563e+001 0.000000000000e+000 0.000000000000e+000
          9.104477611907e+001 0.000000000000e+000 0.000000000000e+000
          9.253731343250e+001 0.000000000000e+000 0.000000000000e+000
          9.402985074593e+001 0.000000000000e+000 0.000000000000e+000
          9.552238805936e+001 0.000000000000e+000 0.000000000000e+000
          9.701492537279e+001 0.000000000000e+000 0.000000000000e+000
          9.850746268622e+001 0.000000000000e+000 0.000000000000e+000
          9.999999999965e+001 0.000000000000e+000 0.000000000000e+000
          1.014925373131e+002 0.000000000000e+000 0.000000000000e+000
          1.029850746265e+002 0.000000000000e+000 0.000000000000e+000
          1.044776119399e+002 0.000000000000e+000 0.000000000000e+000
          1.059701492534e+002 0.000000000000e+000 0.000000000000e+000
          1.074626865668e+002 0.000000000000e+000 0.000000000000e+000
          1.089552238802e+002 0.000000000000e+000 0.000000000000e+000
          1.104477611937e+002 0.000000000000e+000 0.000000000000e+000
          1.119402985071e+002 0.000000000000e+000 0.000000000000e+000
          1.134328358205e+002 0.000000000000e+000 0.000000000000e+000
          1.149253731340e+002 0.000000000000e+000 0.000000000000e+000
          1.164179104474e+002 0.000000000000e+000 0.000000000000e+000
          1.179104477608e+002 0.000000000000e+000 0.000000000000e+000
          1.194029850742e+002 0.000000000000e+000 0.000000000000e+000
          1.208955223877e+002 0.000000000000e+000 0.000000000000e+000
          1.223880597011e+002 0.000000000000e+000 0.000000000000e+000
          1.238805970145e+002 0.000000000000e+000 0.000000000000e+000
          1.253731343280e+002 0.000000000000e+000 0.000000000000e+000
          1.268656716414e+002 0.000000000000e+000 0.000000000000e+000
          1.283582089548e+002 0.000000000000e+000 0.000000000000e+000
          1.298507462683e+002 0.000000000000e+000 0.000000000000e+000
          1.313432835817e+002 0.000000000000e+000 0.000000000000e+000
          1.328358208952e+002 0.000000000000e+000 0.000000000000e+000
          1.343283582086e+002 0.000000000000e+000 0.000000000000e+000
          1.358208955220e+002 0.000000000000e+000 0.000000000000e+000
          1.373134328355e+002 0.000000000000e+000 0.000000000000e+000
          1.388059701489e+002 0.000000000000e+000 0.000000000000e+000
          1.402985074624e+002 0.000000000000e+000 0.000000000000e+000
          1.417910447758e+002 0.000000000000e+000 0.000000000000e+000
          1.432835820892e+002 0.000000000000e+000 0.000000000000e+000
          1.447761194027e+002 0.000000000000e+000 0.000000000000e+000
          1.462686567161e+002 0.000000000000e+000 0.000000000000e+000
          1.477611940296e+002 0.000000000000e+000 0.000000000000e+000
          1.492537313430e+002 0.000000000000e+000 0.000000000000e+000
          1.507462686564e+002 0.000000000000e+000 0.000000000000e+000
          1.522388059699e+002 0.000000000000e+000 0.000000000000e+000
          1.537313432833e+002 0.000000000000e+000 0.000000000000e+000
          1.552238805968e+002 0.000000000000e+000 0.000000000000e+000
          1.567164179102e+002 0.000000000000e+000 0.000000000000e+000
          1.582089552237e+002 0.000000000000e+000 0.000000000000e+000
          1.597014925371e+002 0.000000000000e+000 0.000000000000e+000
          1.611940298505e+002 0.000000000000e+000 0.000000000000e+000
          1.626865671640e+002 0.000000000000e+000 0.000000000000e+000
          1.641791044774e+002 0.000000000000e+000 0.000000000000e+000
          1.656716417909e+002 0.000000000000e+000 0.000000000000e+000
          1.671641791043e+002 0.000000000000e+000 0.000000000000e+000
          1.686567164177e+002 0.000000000000e+000 0.000000000000e+000
          1.701492537312e+002 0.000000000000e+000 0.000000000000e+000
          1.716417910446e+002 0.000000000000e+000 0.000000000000e+000
          1.731343283581e+002 0.000000000000e+000 0.000000000000e+000
          1.746268656715e+002 0.000000000000e+000 0.000000000000e+000
          1.761194029849e+002 0.000000000000e+000 0.000000000000e+000
          1.776119402984e+002 0.000000000000e+000 0.000000000000e+000
          1.791044776118e+002 0.000000000000e+000 0.000000000000e+000
          1.805970149253e+002 0.000000000000e+000 0.000000000000e+000
          1.820895522387e+002 0.000000000000e+000 0.000000000000e+000
          1.835820895521e+002 0.000000000000e+000 0.000000000000e+000
          1.850746268656e+002 0.000000000000e+000 0.000000000000e+000
          1.865671641790e+002 0.000000000000e+000 0.000000000000e+000
          1.880597014925e+002 0.000000000000e+000 0.000000000000e+000
          1.895522388059e+002 0.000000000000e+000 0.000000000000e+000
          1.910447761194e+002 0.000000000000e+000 0.000000000000e+000
          1.925373134328e+002 0.000000000000e+000 0.000000000000e+000
          1.940298507462e+002 0.000000000000e+000 0.000000000000e+000
          1.955223880597e+002 0.000000000000e+000 0.000000000000e+000
          1.970149253731e+002 0.000000000000e+000 0.000000000000e+000
          1.985074626866e+002 0.000000000000e+000 0.000000000000e+000
          2.000000000000e+002 1.428571428570e+000 0.000000000000e+000
          2.000000000000e+002 2.857142857140e+000 0.000000000000e+000
[...]
      <PointData Scalars="Capillary_Pressure">
        <DataArray type="Float64" Name="Capillary_Pressure" format="ascii">
          3.841021665823e+005 0.000000000000e+000 0.000000000000e+000 3.841047299910e+005 3.843330910584e+005 3.815822783621e+005 3.807200662303e+005 3.787799536256e+005 3.785068579613e+005 3.766039713137e+005 3.745702990759e+005 3.744949081085e+005 3.723195042100e+005 3.721530821148e+005 3.702866808977e+005 3.679072198224e+005 3.679435544256e+005 3.659237545359e+005 3.655196086670e+005 3.634111937537e+005 3.600059627700e+005 3.598102391340e+005 3.592487948012e+005 3.562367341492e+005 3.559099744795e+005 3.537224455737e+005 3.531059379445e+005 3.499587773621e+005 3.494685459159e+005 3.474031163385e+005 3.467776863343e+005 3.435733816780e+005 3.430574743461e+005 3.410821556568e+005 3.403594111566e+005 3.367507313068e+005 3.366872237138e+005 3.340795855889e+005 3.316864131215e+005 3.314195071671e+005 3.306415928565e+005 3.274744155904e+005 3.248188156175e+005 3.244532514172e+005 3.208031500188e+005 3.203441437143e+005 3.175113350186e+005 3.170478478145e+005 3.146150231865e+005 3.137219286239e+005 3.096349476150e+005 3.094637196689e+005 3.056103423254e+005 3.050727377911e+005 3.011068912625e+005 2.997675698048e+005 2.975880947985e+005 2.971459700192e+005 2.960350879403e+005 2.922488093334e+005 2.890283237843e+005 2.886846033365e+005 2.846468927512e+005 2.839508101277e+005 2.810468903163e+005 2.776796028100e+005 2.746762096318e+005 2.740829569667e+005 2.695292046575e+005 2.679520179573e+005 2.653460506679e+005 2.622065911627e+005 2.613797763394e+005 2.585137881682e+005 2.547874428753e+005 2.514631399922e+005 2.509467882441e+005 2.474144797323e+005 2.441816317815e+005 2.428977389109e+005 2.371899348581e+005 2.338105882490e+005 2.306983015213e+005 2.270959837791e+005 2.235770396168e+005 2.198559766046e+005 2.191539508781e+005 2.156551393344e+005 2.117846902749e+005 2.082505562228e+005 2.010207834414e+005 1.971618240748e+005 1.932563517621e+005 1.888918864295e+005 1.862697284128e+005 1.786817661693e+005 1.741649684012e+005 1.716991226844e+005 1.635258989502e+005 1.572886671101e+005 1.542284465734e+005 1.440538244153e+005 1.374978700949e+005 1.303905752836e+005 1.215736266710e+005 1.122972092355e+005 1.021475752839e+005 8.981530657210e+004 7.617046491418e+004 5.905409921184e+004 3.663476176646e+004 4.488175020138e+003 0.000000000000e+000 0.000000000000e+000 0.000000000000e+000 0.000000000000e+000 0.000000000000e+000 0.000000000000e+000 0.000000000000e+000 0.000000000000e+000 0.000000000000e+000 0.000000000000e+000 0.000000000000e+000 0.000000000000e+000 0.000000000000e+000 0.000000000000e+000 0.000000000000e+000 0.000000000000e+000 0.000000000000e+000 0.000000000000e+000 0.000000000000e+000 0.000000000000e+000 0.000000000000e+000 0.000000000000e+000 0.000000000000e+000 0.000000000000e+000 0.000000000000e+000 0.000000000000e+000 0.000000000000e+000 0.000000000000e+000 0.000000000000e+000 0.000000000000e+000 0.000000000000e+000 0.000000000000e+000 0.000000000000e+000 0.000000000000e+000 0.000000000000e+000 0.000000000000e+000 0.000000000000e+000 0.000000000000e+000 0.000000000000e+000 0.000000000000e+000 0.000000000000e+000 0.000000000000e+000 0.000000000000e+000 0.000000000000e+000 0.000000000000e+000 0.000000000000e+000 0.000000000000e+000 0.000000000000e+000 0.000000000000e+000 0.000000000000e+000 0.000000000000e+000 0.000000000000e+000 0.000000000000e+000 0.000000000000e+000 0.000000000000e+000 0.000000000000e+000 0.000000000000e+000 0.000000000000e+000 0.000000000000e+000 0.000000000000e+000 0.000000000000e+000 0.000000000000e+000 0.000000000000e+000 4.488455431740e+003 3.662357628513e+004 5.902289595755e+004 7.616271880622e+004 8.979889462233e+004 1.021510999024e+005 1.123190237820e+005 1.215618430939e+005 1.303880460385e+005 1.374909184090e+005 1.440451642884e+005 1.542259620826e+005 1.572804938925e+005 1.635067832785e+005 1.716927580361e+005 1.741607714926e+005 1.786916795997e+005 1.862570966539e+005 1.888888265294e+005 1.932450141378e+005 1.971446643407e+005 2.010112345066e+005 2.082418498815e+005 2.117915361185e+005 2.156618821656e+005 2.191508338639e+005 2.198595271259e+005 2.235830274729e+005 2.271102159003e+005 2.306894656663e+005 2.338187617979e+005 2.371628367045e+005 2.428910815336e+005 2.441668649344e+005 2.474229093352e+005 2.509312517206e+005 2.514526050483e+005 2.547754322029e+005 2.585003346178e+005 2.613948225733e+005 2.647203571121e+005 2.653481099625e+005 2.679365404848e+005 2.695031748593e+005 2.740959655199e+005 2.772637645742e+005 2.776699443633e+005 2.809785438854e+005 2.839597175176e+005 2.846540028023e+005 2.886792064354e+005 2.890367800356e+005 2.922799617610e+005 2.960330019039e+005 2.971485849455e+005 2.976063717002e+005 2.997841400172e+005 3.041313578393e+005 3.050924863204e+005 3.056096845980e+005 3.094746687654e+005 3.096791904504e+005 3.137044420789e+005 3.145835193950e+005 3.170386319763e+005 3.174977219911e+005 3.203221102001e+005 3.235894099602e+005 3.244541391538e+005 3.248013298647e+005 3.274733848642e+005 3.306406743304e+005 3.314234702490e+005 3.316773048343e+005 3.340797796992e+005 3.366887409067e+005 3.367478350555e+005 3.403577990971e+005 3.410781504777e+005 3.430553130635e+005 3.435764207965e+005 3.467752226507e+005 3.474020770103e+005 3.494677860936e+005 3.499523331540e+005 3.531080972577e+005 3.537166329139e+005 3.559092926552e+005 3.562412088957e+005 3.592496397780e+005 3.598112680163e+005 3.600132107514e+005 3.634008481478e+005 3.655160350543e+005 3.659232947172e+005 3.679526424753e+005 3.678955976473e+005 3.702481956279e+005 3.703068654352e+005 3.723347926544e+005 3.744945205867e+005 3.745596612951e+005 3.766123160452e+005 3.785127171212e+005 3.787929869975e+005 3.806796209016e+005 3.815856237718e+005 3.843325516534e+005 3.841051343712e+005 3.841027716830e+005 3.841056826852e+005 3.841048874996e+005 3.841011851396e+005 3.841032802091e+005 3.841041527435e+005 3.841013599700e+005 3.841022553625e+005 3.841054971135e+005 3.841032819776e+005 3.841021559029e+005 3.841023653920e+005 0.000000000000e+000 3.765880132585e+005 0.000000000000e+000 0.000000000000e+000 4.997846798122e+004 1.343317752871e+005 1.787307091711e+005 3.596055702339e+005 2.078564970079e+005 3.474338474253e+005 3.369467954266e+005 3.247182763978e+005 3.047380157466e+005 2.892926076022e+005 2.735702447109e+005 2.544195806275e+005 2.341731710967e+005 3.681372718812e+005 3.146028440217e+005 2.198408147659e+005 2.228792768200e+005 2.441593118221e+005 2.647390707353e+005 2.809588134809e+005 2.971533585172e+005 0.000000000000e+000 0.000000000000e+000 1.009290219267e+005 2.971476190896e+005 2.811608699604e+005 2.645760127383e+005 2.437913645030e+005 1.570975180580e+005 1.932279006166e+005 3.537313002303e+005 3.431262194963e+005 3.313540242561e+005 1.931839584297e+005 1.572635149576e+005 1.021291412573e+005 0.000000000000e+000 0.000000000000e+000 3.314455615966e+005 3.430595971862e+005 3.537091100850e+005 0.000000000000e+000 0.000000000000e+000 3.176116788964e+005 3.100064044459e+005 3.721471180129e+005 3.634024288603e+005 0.000000000000e+000 3.787871358500e+005 0.000000000000e+000 3.787966214561e+005 3.719109297911e+005 3.634457747482e+005 3.204701752180e+005 3.092337660182e+005 0.000000000000e+000 2.341697668881e+005 0.000000000000e+000 2.544157002260e+005 2.735609868006e+005 2.892759798065e+005 3.043667168067e+005 2.079052896882e+005 4.828500639498e+004 1.334365308588e+005 1.786938488666e+005 3.474677240954e+005 3.370110865933e+005 2.088436442776e+005 1.788469712216e+005 1.342541754053e+005 4.886049475038e+004 2.892927762051e+005 2.735525495211e+005 2.544396439174e+005 0.000000000000e+000 2.341474800530e+005 0.000000000000e+000 3.247833064002e+005 3.369642836248e+005 3.474615386685e+005 3.596088421975e+005 0.000000000000e+000 0.000000000000e+000 3.745594532323e+005 3.592405318908e+005 3.009348161211e+005 3.269789882953e+005 0.000000000000e+000 3.807358678076e+005 3.681231204862e+005 3.765517322448e+005 3.681408818734e+005 3.146306061950e+005 3.201106199446e+005 3.097135611077e+005 3.723289819393e+005 3.633763281518e+005 3.145762278061e+005 0.000000000000e+000 9.180354520688e+004 0.000000000000e+000 1.543395770836e+005 0.000000000000e+000 1.893226118889e+005 2.430768423391e+005 2.778727672409e+005 2.931778975127e+005 2.615161022273e+005 3.531228548124e+005 3.316264708764e+005 3.430822600374e+005 2.234633599142e+005 3.146147948096e+005 0.000000000000e+000 3.815723175996e+005 0.000000000000e+000 3.815689628524e+005 2.385542625136e+005 2.585931195952e+005 2.778754238859e+005 2.926925187410e+005 2.010565954986e+005 2.269545824253e+005 2.157129659783e+005 1.682112552086e+005 3.276687843545e+005 1.158871243677e+005 3.408723156005e+005 0.000000000000e+000 3.502404416853e+005 0.000000000000e+000 0.000000000000e+000 0.000000000000e+000 0.000000000000e+000 0.000000000000e+000 1.167017839089e+005 8.560231558871e+004 1.683486790020e+005 1.509094659434e+005 3.501796570859e+005 1.897563172537e+005 2.010739765000e+005 3.408274612816e+005 3.437515189532e+005 2.926670762319e+005 2.778594500118e+005 2.585402458968e+005 2.842757161475e+005 2.656888412631e+005 2.425128373425e+005 2.470539925773e+005 3.317307521660e+005 2.156965198083e+005 2.267078434044e+005 0.000000000000e+000 3.560772940146e+005 0.000000000000e+000 3.436817169884e+005 8.764759245820e+004 3.318147664813e+005 1.503020171502e+005 2.999955481996e+005 2.844125027504e+005 2.658285794402e+005 2.502408318647e+005 1.899215351502e+005 3.681183738330e+005 0.000000000000e+000 0.000000000000e+000 3.090796357012e+005 3.230402081952e+005 3.632209996075e+005 2.158113166372e+005 2.656845089846e+005 2.469837723820e+005 2.842222443655e+005 2.999776327246e+005 3.560489674588e+005 3.409181628940e+005 0.000000000000e+000 3.276906854402e+005 0.000000000000e+000 1.173584672722e+005 2.009483728238e+005 1.644026894324e+005 3.559150158848e+005 0.000000000000e+000 0.000000000000e+000 3.132252917944e+005 3.723219550232e+005 0.000000000000e+000 2.155252522845e+005 2.044455706074e+005 1.718076847063e+005 3.272959178852e+005 1.223417709766e+005 3.403120871992e+005 2.847091172685e+005 2.679796950573e+005 2.510175105529e+005 0.000000000000e+000 3.562368527988e+005 0.000000000000e+000 3.657006751588e+005 3.002153917200e+005 0.000000000000e+000 0.000000000000e+000 0.000000000000e+000 2.974856027153e+005 3.307192832007e+005 3.055415469601e+005 3.237185686996e+005 3.785227271797e+005 3.599676555670e+005 3.744595641726e+005 3.701945606980e+005 3.599648089707e+005 2.371839860328e+005 2.585134565167e+005 2.772919088626e+005 2.922901408135e+005 2.569618562759e+003 3.499617047513e+005 0.000000000000e+000 2.271631800272e+005 1.862897604304e+005 5.964196275211e+003 1.439397120460e+005 0.000000000000e+000 7.611175772644e+004 2.377474520985e+005 2.585385603705e+005 2.772397569513e+005 2.922415566114e+005 3.498923498607e+005 3.340484394232e+005 3.467901306949e+005 3.467872775946e+005 7.528214247811e+004 3.336237306232e+005 1.439565244550e+005 1.861967052328e+005 2.271355423017e+005 0.000000000000e+000 0.000000000000e+000 3.815706044218e+005 3.815784875576e+005 0.000000000000e+000 3.780790810585e+005 0.000000000000e+000 0.000000000000e+000 3.766502619346e+005 0.000000000000e+000 3.744739626848e+005 3.780888235441e+005 3.239111418065e+005 3.049520633811e+005 3.594091785506e+005 3.743818658815e+005 3.245089805442e+005 3.658105090128e+005 3.659548733229e+005 3.049873228787e+005 3.700842830991e+005 3.200462340125e+005 3.133550443487e+005 3.702418722219e+005 3.406366125247e+005 2.006116147657e+005 1.676102710332e+005 1.195195717516e+005 0.000000000000e+000 0.000000000000e+000 2.159484189926e+005 3.002408739486e+005 2.840826714047e+005 2.684661483539e+005 2.506706732285e+005 3.174377083490e+005 3.658887687451e+005 3.102442706054e+005 3.170008369004e+005 0.000000000000e+000 0.000000000000e+000 3.557914100097e+005 3.301206864573e+005 3.766796227983e+005 3.787447708124e+005 0.000000000000e+000 3.701397332143e+005 2.342651175085e+005 2.573998329522e+005 2.741384464335e+005 2.890616490589e+005 2.082746263845e+005 2.086484934259e+005 2.306037278953e+005 1.741016319470e+005 1.317510513380e+005 3.248317385351e+005 3.504116242803e+004 3.371121229084e+005 0.000000000000e+000 3.494903991636e+005 0.000000000000e+000 0.000000000000e+000 3.465968601004e+004 1.316876884300e+005 1.752481695859e+005 3.495070848976e+005 3.371197674378e+005 2.890382453596e+005 2.741535886191e+005 2.574165058426e+005 0.000000000000e+000 3.592319926962e+005 3.010328117771e+005 0.000000000000e+000 0.000000000000e+000 0.000000000000e+000 3.564319643415e+005 3.600726446572e+005 3.744605965096e+005 3.136433491477e+005 0.000000000000e+000 0.000000000000e+000 1.072378134896e+005 1.607235964127e+005 1.974326986782e+005 3.537897144039e+005 3.410047097691e+005 3.309904867403e+005 2.441889758666e+005 2.811646878905e+005 2.975628013068e+005 2.653283634198e+005 2.195310199106e+005 0.000000000000e+000 0.000000000000e+000 0.000000000000e+000 0.000000000000e+000 1.347732165285e+005 1.785842867665e+005 3.370409134247e+005 2.891327758164e+005 2.732608896223e+005 2.542218611746e+005 3.809574968967e+005 3.171072206343e+005 2.085899787225e+005 2.082563983923e+005 3.043819330511e+005 0.000000000000e+000 3.841768350829e+005 3.273027425183e+005 2.999565018501e+005 1.932750058489e+005 1.573421949758e+005 1.021830147787e+005 0.000000000000e+000 0.000000000000e+000 3.314000286132e+005 3.430388381372e+005 3.537203189747e+005 2.647181320250e+005 2.441735532642e+005 2.971495439042e+005 2.810414729305e+005 0.000000000000e+000 0.000000000000e+000 2.810263391286e+005 2.647007013886e+005 1.021343109233e+005 2.441772124086e+005 1.572933863231e+005 1.932016227842e+005 3.430606641259e+005 2.198103616327e+005 2.198696163802e+005 3.656801811479e+005 3.209173079189e+005 3.679043808951e+005 2.979358015169e+005 3.144174638715e+005 0.000000000000e+000 0.000000000000e+000 3.094715100994e+005 3.059917141091e+005 3.140546870833e+005 2.040362086867e+005 2.347558088872e+005 2.307411703312e+005 2.113519991400e+005 2.507385867471e+005 2.691032563183e+005 2.882789814094e+005 1.814817763696e+005 3.472039845140e+005 3.363585918239e+005 0.000000000000e+000 6.704162740953e+004 1.406401474861e+005 0.000000000000e+000 3.472008899693e+005 6.710398524411e+004 3.363538059648e+005 2.882736816746e+005 2.690799474278e+005 2.511229537942e+005 1.406467256106e+005 1.814919275548e+005 3.810510140215e+005 3.743345935383e+005 0.000000000000e+000 3.810444583144e+005 2.341357085162e+005 2.342170762766e+005 3.474714337142e+005 3.474794103806e+005 4.780268884465e+004 4.829425991547e+004 0.000000000000e+000 3.700387512471e+005 3.765847354914e+005 3.592170839389e+005 3.681540374076e+005 0.000000000000e+000 3.841779872809e+005 0.000000000000e+000 3.841766206539e+005 3.721668496674e+005 0.000000000000e+000 0.000000000000e+000 1.788783544787e+005 1.342770816665e+005 3.369653550479e+005 2.543057522205e+005 2.893277268160e+005 2.736090718966e+005 0.000000000000e+000 3.635068752632e+005 3.634635397660e+005 3.744734868753e+005 3.053503425144e+005 3.240672590284e+005 3.744965259437e+005 3.598158818658e+005 3.536199673451e+005 3.201860555758e+005 3.629585514932e+005 0.000000000000e+000 0.000000000000e+000 3.231039198887e+005 3.057477842524e+005 0.000000000000e+000 3.249479219780e+005 3.056052791636e+005 3.095565826967e+005 0.000000000000e+000 3.560739236952e+005 0.000000000000e+000 2.847009514793e+005 2.679871157541e+005 2.510106852402e+005 2.123178198776e+005 3.408510959774e+005 1.159546894137e+005 3.300410426832e+005 1.682694803189e+005 2.045375704112e+005 0.000000000000e+000 3.659473607759e+005 3.103301622258e+005 3.168809919010e+005 3.247978836111e+005 3.702681604937e+005 0.000000000000e+000 3.841773925506e+005 0.000000000000e+000 3.843197432987e+005 3.767179748910e+005 3.595890278495e+005 3.146954484677e+005 3.201750607324e+005 0.000000000000e+000 3.316380335906e+005 2.967659094277e+005 3.634760166344e+005 3.052828238344e+005 3.680356266364e+005 1.898304713675e+005 1.497771491258e+005 8.653966387647e+004 3.318570875637e+005 3.437564443911e+005 7.433377533453e+004 0.000000000000e+000 1.438451404067e+005 8.162714901862e+003 1.860806696063e+005 3.468263110140e+005 3.336531142448e+005 3.493943758559e+005 2.922004500815e+005 2.584388873976e+005 2.745857828688e+005 2.379485614054e+005 0.000000000000e+000 0.000000000000e+000 3.501995009818e+005 2.268016591453e+005 2.927676094159e+005 2.779580825518e+005 2.586616416288e+005 2.425370294510e+005 2.272185003018e+005 2.198432911957e+005 2.441666731217e+005 2.810503741392e+005 2.647518880256e+005 2.971525308741e+005 0.000000000000e+000 0.000000000000e+000 1.020938644760e+005 1.932193448847e+005 1.572546985325e+005 3.537127219894e+005 3.430576684706e+005 3.314223330632e+005 3.241158502061e+005 3.599595392212e+005 0.000000000000e+000 3.767122205601e+005 2.273701211941e+005 2.378171284117e+005 2.583374676983e+005 2.770155329390e+005 2.920915522106e+005 1.362753670517e+004 0.000000000000e+000 3.492985159872e+005 7.261860840848e+004 1.437124883628e+005 1.859313257681e+005 3.470155842037e+005 3.337059093329e+005 3.142416832383e+005 0.000000000000e+000 3.171611050436e+005 0.000000000000e+000 2.230101115782e+005 2.197489029189e+005 2.439711369595e+005 2.643933795698e+005 2.807971971252e+005 2.968459126072e+005 0.000000000000e+000 0.000000000000e+000 1.034986438328e+005 1.611139807749e+005 1.927878583328e+005 3.429556310790e+005 1.933488098147e+005 2.809228502956e+005 2.623317887793e+005 2.440166409899e+005 1.573916333971e+005 1.022264139854e+005 3.313642174239e+005 0.000000000000e+000 3.430173808377e+005 0.000000000000e+000 3.537176762865e+005 3.681351520698e+005 0.000000000000e+000 3.533302760039e+005 0.000000000000e+000 2.779068518878e+005 2.431362694800e+005 2.613735318193e+005 2.931987328080e+005 3.429818645948e+005 9.291749787123e+004 3.313234101106e+005 1.531103701824e+005 1.895294356903e+005 2.232468068022e+005 3.766224480727e+005 0.000000000000e+000 3.841796457239e+005 0.000000000000e+000 0.000000000000e+000 0.000000000000e+000 3.173197908490e+005 3.104831614806e+005 3.636188483567e+005 3.536563865756e+005 0.000000000000e+000 3.762285061257e+005 0.000000000000e+000 0.000000000000e+000 3.597356938480e+005 2.046023103394e+005 1.719381777470e+005 3.273982099476e+005 1.258877432516e+005 3.402591590291e+005 2.509178566913e+005 2.679887181513e+005 2.846391768302e+005 2.123215800599e+005 0.000000000000e+000 3.563216797636e+005 0.000000000000e+000 3.248117318932e+005 3.044489768943e+005 3.175367124244e+005 3.722906784658e+005 3.744598505012e+005 0.000000000000e+000 3.807632597474e+005 0.000000000000e+000 3.807647728016e+005 2.967209405733e+005 3.316221272098e+005 2.999611626684e+005 3.701770344416e+005 0.000000000000e+000 3.809630785219e+005 3.205295653700e+005 3.099375995160e+005 3.176388216021e+005 3.636418177862e+005 3.721901097629e+005 3.679757387780e+005 3.277934726931e+005 3.721959066948e+005 3.659860666530e+005 3.174670240361e+005 3.745715071758e+005 3.723779724267e+005 3.141681354685e+005 3.235085923831e+005 3.097623263086e+005 3.202546015998e+005 0.000000000000e+000 3.785184943406e+005 3.561908371039e+005 2.194724942348e+005 2.114219304024e+005 0.000000000000e+000 0.000000000000e+000 0.000000000000e+000 0.000000000000e+000 1.224349326347e+005 1.718845577133e+005 3.402733196641e+005 1.968326150039e+005 2.039822294617e+005 2.975597697734e+005 3.000866704665e+005 2.838690105071e+005 2.882197615541e+005 2.690068220807e+005 2.648780592311e+005 2.474195962348e+005 2.514528172194e+005 3.787804515162e+005 0.000000000000e+000 0.000000000000e+000 0.000000000000e+000 0.000000000000e+000 3.810773930761e+005 0.000000000000e+000 2.383740251285e+005 2.584780299779e+005 2.777733868513e+005 2.919911920265e+005 2.269655983865e+005 2.152555155139e+005 2.012004098890e+005 1.684264415101e+005 3.275687798746e+005 1.167599519699e+005 3.407902147067e+005 0.000000000000e+000 3.501675949863e+005 0.000000000000e+000 0.000000000000e+000 0.000000000000e+000 0.000000000000e+000 1.167821032610e+005 1.68424