<?xml version="1.0"?>
<VTKFile type="UnstructuredGrid" version="0.1" byte_order="LittleEndian">
  <UnstructuredGrid>
    <Piece NumberOfPoints="2604" NumberOfCells="4910">
      <Points>
        <DataArray type="Float64" NumberOfComponents="3" format="ascii">
          0.000000000000e+000 0.000000000000e+000 0.000000000000e+000
          2.000000000000e+002 0.000000000000e+000 0.000000000000e+000
          2.000000000000e+002 2.000000000000e+001 0.000000000000e+000
          0.000000000000e+000 2.000000000000e+001 0.000000000000e+000
          1.492537313427e+000 0.000000000000e+000 0.000000000000e+000
          2.985074626854e+000 0.000000000000e+000 0.000000000000e+000
          4.477611940281e+000 0.000000000000e+000 0.000000000000e+000
          5.970149253708e+000 0.000000000000e+000 0.000000000000e+000
          7.462686567135e+000 0.000000000000e+000 0.000000000000e+000
          8.955223880561e+000 0.000000000000e+000 0.000000000000e+000
          1.044776119399e+001 0.000000000000e+000 0.000000000000e+000
          1.194029850741e+001 0.000000000000e+000 0.000000000000e+000
          1.343283582084e+001 0.000000000000e+000 0.000000000000e+000
          1.492537313427e+001 0.000000000000e+000 0.000000000000e+000
          1.641791044770e+001 0.000000000000e+000 0.000000000000e+000
          1.791044776112e+001 0.000000000000e+000 0.000000000000e+000
          1.940298507455e+001 0.000000000000e+000 0.000000000000e+000
          2.089552238798e+001 0.000000000000e+000 0.000000000000e+000
          2.238805970141e+001 0.000000000000e+000 0.000000000000e+000
          2.388059701484e+001 0.000000000000e+000 0.000000000000e+000
          2.537313432826e+001 0.000000000000e+000 0.000000000000e+000
          2.686567164169e+001 0.000000000000e+000 0.000000000000e+000
          2.835820895511e+001 0.000000000000e+000 0.000000000000e+000
          2.985074626854e+001 0.000000000000e+000 0.000000000000e+000
          3.134328358196e+001 0.000000000000e+000 0.000000000000e+000
          3.283582089539e+001 0.000000000000e+000 0.000000000000e+000
          3.432835820881e+001 0.000000000000e+000 0.000000000000e+000
          3.582089552224e+001 0.000000000000e+000 0.000000000000e+000
          3.731343283566e+001 0.000000000000e+000 0.000000000000e+000
          3.880597014909e+001 0.000000000000e+000 0.000000000000e+000
          4.029850746251e+001 0.000000000000e+000 0.000000000000e+000
          4.179104477594e+001 0.000000000000e+000 0.000000000000e+000
          4.328358208936e+001 0.000000000000e+000 0.000000000000e+000
          4.477611940279e+001 0.000000000000e+000 0.000000000000e+000
          4.626865671621e+001 0.000000000000e+000 0.000000000000e+000
          4.776119402964e+001 0.000000000000e+000 0.000000000000e+000
          4.925373134306e+001 0.000000000000e+000 0.000000000000e+000
          5.074626865649e+001 0.000000000000e+000 0.000000000000e+000
          5.223880596991e+001 0.000000000000e+000 0.000000000000e+000
          5.373134328334e+001 0.000000000000e+000 0.000000000000e+000
          5.522388059676e+001 0.000000000000e+000 0.000000000000e+000
          5.671641791019e+001 0.000000000000e+000 0.000000000000e+000
          5.820895522361e+001 0.000000000000e+000 0.000000000000e+000
          5.970149253704e+001 0.000000000000e+000 0.000000000000e+000
          6.119402985046e+001 0.000000000000e+000 0.000000000000e+000
          6.268656716389e+001 0.000000000000e+000 0.000000000000e+000
          6.417910447732e+001 0.000000000000e+000 0.000000000000e+000
          6.567164179075e+001 0.000000000000e+000 0.000000000000e+000
          6.716417910418e+001 0.000000000000e+000 0.000000000000e+000
          6.865671641761e+001 0.000000000000e+000 0.000000000000e+000
          7.014925373104e+001 0.000000000000e+000 0.000000000000e+000
          7.164179104447e+001 0.000000000000e+000 0.000000000000e+000
          7.313432835790e+001 0.000000000000e+000 0.000000000000e+000
          7.462686567133e+001 0.000000000000e+000 0.000000000000e+000
          7.611940298476e+001 0.000000000000e+000 0.000000000000e+000
          7.761194029819e+001 0.000000000000e+000 0.000000000000e+000
          7.910447761162e+001 0.000000000000e+000 0.000000000000e+000
          8.059701492505e+001 0.000000000000e+000 0.000000000000e+000
          8.208955223848e+001 0.000000000000e+000 0.000000000000e+000
          8.358208955191e+001 0.000000000000e+000 0.000000000000e+000
          8.507462686534e+001 0.000000000000e+000 0.000000000000e+000
          8.656716417877e+001 0.000000000000e+000 0.000000000000e+000
          8.805970149220e+001 0.000000000000e+000 0.000000000000e+000
          8.955223880563e+001 0.000000000000e+000 0.000000000000e+000
          9.104477611907e+001 0.000000000000e+000 0.000000000000e+000
          9.253731343250e+001 0.000000000000e+000 0.000000000000e+000
          9.402985074593e+001 0.000000000000e+000 0.000000000000e+000
          9.552238805936e+001 0.000000000000e+000 0.000000000000e+000
          9.701492537279e+001 0.000000000000e+000 0.000000000000e+000
          9.850746268622e+001 0.000000000000e+000 0.000000000000e+000
          9.999999999965e+001 0.000000000000e+000 0.000000000000e+000
          1.014925373131e+002 0.000000000000e+000 0.000000000000e+000
          1.029850746265e+002 0.000000000000e+000 0.000000000000e+000
          1.044776119399e+002 0.000000000000e+000 0.000000000000e+000
          1.059701492534e+002 0.000000000000e+000 0.000000000000e+000
          1.074626865668e+002 0.000000000000e+000 0.000000000000e+000
          1.089552238802e+002 0.000000000000e+000 0.000000000000e+000
          1.104477611937e+002 0.000000000000e+000 0.000000000000e+000
          1.119402985071e+002 0.000000000000e+000 0.000000000000e+000
          1.134328358205e+002 0.000000000000e+000 0.000000000000e+000
          1.149253731340e+002 0.000000000000e+000 0.000000000000e+000
          1.164179104474e+002 0.000000000000e+000 0.000000000000e+000
          1.179104477608e+002 0.000000000000e+000 0.000000000000e+000
          1.194029850742e+002 0.000000000000e+000 0.000000000000e+000
          1.208955223877e+002 0.000000000000e+000 0.000000000000e+000
          1.223880597011e+002 0.000000000000e+000 0.000000000000e+000
          1.238805970145e+002 0.000000000000e+000 0.000000000000e+000
          1.253731343280e+002 0.000000000000e+000 0.000000000000e+000
          1.268656716414e+002 0.000000000000e+000 0.000000000000e+000
          1.283582089548e+002 0.000000000000e+000 0.000000000000e+000
          1.298507462683e+002 0.000000000000e+000 0.000000000000e+000
          1.313432835817e+002 0.000000000000e+000 0.000000000000e+000
          1.328358208952e+002 0.000000000000e+000 0.000000000000e+000
          1.343283582086e+002 0.000000000000e+000 0.000000000000e+000
          1.358208955220e+002 0.000000000000e+000 0.000000000000e+000
          1.373134328355e+002 0.000000000000e+000 0.000000000000e+000
          1.388059701489e+002 0.000000000000e+000 0.000000000000e+000
          1.402985074624e+002 0.000000000000e+000 0.000000000000e+000
          1.417910447758e+002 0.000000000000e+000 0.000000000000e+000
          1.432835820892e+002 0.000000000000e+000 0.000000000000e+000
          1.447761194027e+002 0.000000000000e+000 0.000000000000e+000
          1.462686567161e+002 0.000000000000e+000 0.000000000000e+000
          1.477611940296e+002 0.000000000000e+000 0.000000000000e+000
          1.492537313430e+002 0.000000000000e+000 0.000000000000e+000
          1.507462686564e+002 0.000000000000e+000 0.000000000000e+000
          1.522388059699e+002 0.000000000000e+000 0.000000000000e+000
          1.537313432833e+002 0.000000000000e+000 0.000000000000e+000
          1.552238805968e+002 0.000000000000e+000 0.000000000000e+000
          1.567164179102e+002 0.000000000000e+000 0.000000000000e+000
          1.582089552237e+002 0.000000000000e+000 0.000000000000e+000
          1.597014925371e+002 0.000000000000e+000 0.000000000000e+000
          1.611940298505e+002 0.000000000000e+000 0.000000000000e+000
          1.626865671640e+002 0.000000000000e+000 0.000000000000e+000
          1.641791044774e+002 0.000000000000e+000 0.000000000000e+000
          1.656716417909e+002 0.000000000000e+000 0.000000000000e+000
          1.671641791043e+002 0.000000000000e+000 0.000000000000e+000
          1.686567164177e+002 0.000000000000e+000 0.000000000000e+000
          1.701492537312e+002 0.000000000000e+000 0.000000000000e+000
          1.716417910446e+002 0.000000000000e+000 0.000000000000e+000
          1.731343283581e+002 0.000000000000e+000 0.000000000000e+000
          1.746268656715e+002 0.000000000000e+000 0.000000000000e+000
          1.761194029849e+002 0.000000000000e+000 0.000000000000e+000
          1.776119402984e+002 0.000000000000e+000 0.000000000000e+000
          1.791044776118e+002 0.000000000000e+000 0.000000000000e+000
          1.805970149253e+002 0.000000000000e+000 0.000000000000e+000
          1.820895522387e+002 0.000000000000e+000 0.000000000000e+000
          1.835820895521e+002 0.000000000000e+000 0.000000000000e+000
          1.850746268656e+002 0.000000000000e+000 0.000000000000e+000
          1.865671641790e+002 0.000000000000e+000 0.000000000000e+000
          1.880597014925e+002 0.000000000000e+000 0.000000000000e+000
          1.895522388059e+002 0.000000000000e+000 0.000000000000e+000
          1.910447761194e+002 0.000000000000e+000 0.000000000000e+000
          1.925373134328e+002 0.000000000000e+000 0.000000000000e+000
          1.940298507462e+002 0.000000000000e+000 0.000000000000e+000
          1.955223880597e+002 0.000000000000e+000 0.000000000000e+000
          1.970149253731e+002 0.000000000000e+000 0.000000000000e+000
          1.985074626866e+002 0.000000000000e+000 0.000000000000e+000
          2.000000000000e+002 1.428571428570e+000 0.000000000000e+000
          2.000000000000e+002 2.857142857140e+000 0.000000000000e+000
[...]
      <PointData Scalars="Capillary_Pressure">
        <DataArray type="Float64" Name="Capillary_Pressure" format="ascii">
          3.849595904069e+005 0.000000000000e+000 0.000000000000e+000 3.849619927260e+005 3.851888713881e+005 3.824477956971e+005 3.815859035000e+005 3.796505963250e+005 3.793776147513e+005 3.774790398595e+005 3.754487616882e+005 3.753729654028e+005 3.732009592553e+005 3.730331715052e+005 3.711631846166e+005 3.687881289935e+005 3.688261018296e+005 3.668076732180e+005 3.664008146073e+005 3.642946791292e+005 3.608950629317e+005 3.606940454821e+005 3.601301346571e+005 3.571216731314e+005 3.567899641345e+005 3.546032820198e+005 3.539820770608e+005 3.508379137090e+005 3.503419274892e+005 3.482761149738e+005 3.476439277427e+005 3.444421492824e+005 3.439206043009e+005 3.419434866484e+005 3.412130185743e+005 3.376087640403e+005 3.375339962736e+005 3.349251559996e+005 3.325324480578e+005 3.322550162087e+005 3.314676777202e+005 3.283036661026e+005 3.256395120669e+005 3.252698001407e+005 3.216144473481e+005 3.211491113128e+005 3.183168397189e+005 3.178394664494e+005 3.154026162384e+005 3.145013337816e+005 3.104133656773e+005 3.102314789159e+005 3.063766468924e+005 3.058272105822e+005 3.018621332775e+005 3.005096284504e+005 2.983254357865e+005 2.978703391441e+005 2.967491495489e+005 2.929595456473e+005 2.897376884124e+005 2.893781392179e+005 2.853345419845e+005 2.846333944742e+005 2.817188293459e+005 2.783459065741e+005 2.753372120429e+005 2.747291410977e+005 2.701766848320e+005 2.685856010655e+005 2.659747548251e+005 2.628282442547e+005 2.619837084905e+005 2.591107813418e+005 2.553794985826e+005 2.520512430355e+005 2.515176803881e+005 2.479781257154e+005 2.447388610381e+005 2.434380225615e+005 2.377323694114e+005 2.343496946592e+005 2.312229509905e+005 2.276179646374e+005 2.240900314824e+005 2.203637238185e+005 2.196461626829e+005 2.161387128621e+005 2.122595999216e+005 2.087213408992e+005 2.014950582292e+005 1.976271235634e+005 1.937131937819e+005 1.893484423735e+005 1.867149700919e+005 1.791329876701e+005 1.746126698016e+005 1.721348687850e+005 1.639713428549e+005 1.577373976137e+005 1.546681316955e+005 1.445142543028e+005 1.379664075500e+005 1.308700986610e+005 1.220756653194e+005 1.128275623390e+005 1.027167773632e+005 9.044767517957e+004 7.689312708043e+004 5.992828032903e+004 3.777746906681e+004 6.007706569842e+003 0.000000000000e+000 0.000000000000e+000 0.000000000000e+000 0.000000000000e+000 0.000000000000e+000 0.000000000000e+000 0.000000000000e+000 0.000000000000e+000 0.000000000000e+000 0.000000000000e+000 0.000000000000e+000 0.000000000000e+000 0.000000000000e+000 0.000000000000e+000 0.000000000000e+000 0.000000000000e+000 0.000000000000e+000 0.000000000000e+000 0.000000000000e+000 0.000000000000e+000 0.000000000000e+000 0.000000000000e+000 0.000000000000e+000 0.000000000000e+000 0.000000000000e+000 0.000000000000e+000 0.000000000000e+000 0.000000000000e+000 0.000000000000e+000 0.000000000000e+000 0.000000000000e+000 0.000000000000e+000 0.000000000000e+000 0.000000000000e+000 0.000000000000e+000 0.000000000000e+000 0.000000000000e+000 0.000000000000e+000 0.000000000000e+000 0.000000000000e+000 0.000000000000e+000 0.000000000000e+000 0.000000000000e+000 0.000000000000e+000 0.000000000000e+000 0.000000000000e+000 0.000000000000e+000 0.000000000000e+000 0.000000000000e+000 0.000000000000e+000 0.000000000000e+000 0.000000000000e+000 0.000000000000e+000 0.000000000000e+000 0.000000000000e+000 0.000000000000e+000 0.000000000000e+000 0.000000000000e+000 0.000000000000e+000 0.000000000000e+000 0.000000000000e+000 0.000000000000e+000 0.000000000000e+000 6.005602828414e+003 3.776582923962e+004 5.989677114901e+004 7.688493653051e+004 9.043172958102e+004 1.027204594914e+005 1.128489527763e+005 1.220637146137e+005 1.308677177024e+005 1.379595957317e+005 1.445063900495e+005 1.546652383680e+005 1.577291580763e+005 1.639531040507e+005 1.721285571560e+005 1.746090006821e+005 1.791410036975e+005 1.867031719866e+005 1.893450266108e+005 1.937026116912e+005 1.976100439340e+005 2.014814813911e+005 2.087124768826e+005 2.122660961899e+005 2.161448973233e+005 2.196437479910e+005 2.203649116634e+005 2.240970012079e+005 2.276305094822e+005 2.312134582076e+005 2.343565340767e+005 2.377077150491e+005 2.434309626827e+005 2.447228373427e+005 2.479848903490e+005 2.515024702558e+005 2.520402398828e+005 2.553666364039e+005 2.590980899124e+005 2.619985437674e+005 2.653334891846e+005 2.659758630836e+005 2.685692497113e+005 2.701519760107e+005 2.747421574341e+005 2.779164740982e+005 2.783338609980e+005 2.816521351068e+005 2.846398118952e+005 2.853397602244e+005 2.893751099740e+005 2.897456872789e+005 2.929897705837e+005 2.967466196446e+005 2.978738637565e+005 2.983422044069e+005 3.005286837737e+005 3.048743708586e+005 3.058475284717e+005 3.063766984776e+005 3.102403348240e+005 3.104563990685e+005 3.144832177626e+005 3.153718055542e+005 3.178287451805e+005 3.183008253160e+005 3.211285922897e+005 3.243936488876e+005 3.252702687379e+005 3.256245929607e+005 3.283005975742e+005 3.314686366219e+005 3.322581819854e+005 3.325241305930e+005 3.349261589721e+005 3.375350497803e+005 3.376064620720e+005 3.412107417454e+005 3.419396039451e+005 3.439182864580e+005 3.444452952871e+005 3.476414973782e+005 3.482751173330e+005 3.503411245660e+005 3.508317982486e+005 3.539837046600e+005 3.545976241860e+005 3.567897398253e+005 3.571259043361e+005 3.601304973196e+005 3.606962054010e+005 3.609029420070e+005 3.642845084018e+005 3.663974516550e+005 3.668079644496e+005 3.688348755478e+005 3.687778078117e+005 3.711341577591e+005 3.711929762404e+005 3.732173854683e+005 3.753710140262e+005 3.754402337622e+005 3.774865273514e+005 3.793836710659e+005 3.796639219591e+005 3.815453341378e+005 3.824506568307e+005 3.851884130428e+005 3.849619584036e+005 3.849595602253e+005 3.849627634959e+005 3.849617943696e+005 3.849586771640e+005 3.849603131996e+005 3.849609781478e+005 3.849586287072e+005 3.849593942794e+005 3.849619985080e+005 3.849606823737e+005 3.849589267875e+005 3.849593665692e+005 0.000000000000e+000 3.774621029007e+005 0.000000000000e+000 0.000000000000e+000 5.095327569586e+004 1.348047367783e+005 1.791729459080e+005 3.604880827615e+005 2.083344019436e+005 3.483091740467e+005 3.377971468756e+005 3.255362353787e+005 3.054866407582e+005 2.899896355764e+005 2.742096282046e+005 2.550036992738e+005 2.347019392699e+005 3.690214993483e+005 3.153911055021e+005 2.203477118395e+005 2.233774231084e+005 2.447169700103e+005 2.653462524005e+005 2.816338494257e+005 2.978775312076e+005 0.000000000000e+000 0.000000000000e+000 1.015039658637e+005 2.978726107008e+005 2.818310733630e+005 2.651875885514e+005 2.443523104220e+005 1.575446837530e+005 1.936901771709e+005 3.546123295818e+005 3.439911723791e+005 3.321877894227e+005 1.936388486945e+005 1.577119812493e+005 1.026987011777e+005 0.000000000000e+000 0.000000000000e+000 3.322815226682e+005 3.439225664422e+005 3.545897630840e+005 0.000000000000e+000 0.000000000000e+000 3.184170462057e+005 3.107803011271e+005 3.730289494944e+005 3.642860400735e+005 0.000000000000e+000 3.796582554973e+005 0.000000000000e+000 3.796670590513e+005 3.727911437876e+005 3.643305379840e+005 3.212774255008e+005 3.099985219433e+005 0.000000000000e+000 2.346955847875e+005 0.000000000000e+000 2.549996775166e+005 2.742001359570e+005 2.899731756407e+005 3.051131392099e+005 2.083852478987e+005 4.928025042221e+004 1.339108200356e+005 1.791330723929e+005 3.483449083833e+005 3.378634394184e+005 2.093210159254e+005 1.792877453366e+005 1.347260424599e+005 4.984896600658e+004 2.899895484194e+005 2.741927119494e+005 2.550232202724e+005 0.000000000000e+000 2.346780519501e+005 0.000000000000e+000 3.256022689274e+005 3.378173506125e+005 3.483385988072e+005 3.604907633457e+005 0.000000000000e+000 0.000000000000e+000 3.754394946528e+005 3.601203310951e+005 3.016868385139e+005 3.277994469499e+005 0.000000000000e+000 3.816008230006e+005 3.690072386205e+005 3.774260624525e+005 3.690242397867e+005 3.154297872107e+005 3.209049577236e+005 3.104828617802e+005 3.732107962688e+005 3.642571471910e+005 3.153634705427e+005 0.000000000000e+000 9.242298672621e+004 0.000000000000e+000 1.547800815499e+005 0.000000000000e+000 1.897766989719e+005 2.436270401687e+005 2.785280543951e+005 2.938992530519e+005 2.621140974088e+005 3.539990462659e+005 3.324715042410e+005 3.439523450076e+005 2.239741184147e+005 3.154000741695e+005 0.000000000000e+000 3.824375477287e+005 0.000000000000e+000 3.824337230971e+005 2.391034852584e+005 2.592115668413e+005 2.785403634362e+005 2.934099405055e+005 2.015197861986e+005 2.274674348409e+005 2.162047848552e+005 1.686464186485e+005 3.284983892850e+005 1.164050423140e+005 3.417305614249e+005 0.000000000000e+000 3.511222727236e+005 0.000000000000e+000 0.000000000000e+000 0.000000000000e+000 0.000000000000e+000 0.000000000000e+000 1.172170135446e+005 8.626166077311e+004 1.687854081433e+005 1.513555509413e+005 3.510605045853e+005 1.902060270448e+005 2.015378078779e+005 3.416846444830e+005 3.446259243500e+005 2.933889169543e+005 2.785222918563e+005 2.591488576972e+005 2.849606662316e+005 2.663206948250e+005 2.430491537324e+005 2.476271821992e+005 3.325762573309e+005 2.161864753507e+005 2.272159068671e+005 0.000000000000e+000 3.569587194072e+005 0.000000000000e+000 3.445547462047e+005 8.829168128094e+004 3.326600372858e+005 1.507534423199e+005 3.007335861134e+005 2.850961408942e+005 2.664601715830e+005 2.508045763327e+005 1.903675243466e+005 3.690026786172e+005 0.000000000000e+000 0.000000000000e+000 3.098422407504e+005 3.238414773218e+005 3.641025128471e+005 2.163032607402e+005 2.663126025328e+005 2.475625179395e+005 2.849101505493e+005 3.007149938179e+005 3.569299199498e+005 3.417788983041e+005 0.000000000000e+000 3.285252315006e+005 0.000000000000e+000 1.178654533990e+005 2.014076766462e+005 1.648536877072e+005 3.567958746495e+005 0.000000000000e+000 0.000000000000e+000 3.139965958476e+005 3.732034358612e+005 0.000000000000e+000 2.160054763840e+005 2.049039253246e+005 1.722441211102e+005 3.281230384233e+005 1.228413798141e+005 3.411666219139e+005 2.853990979271e+005 2.686181885800e+005 2.515861219961e+005 0.000000000000e+000 3.571215326635e+005 0.000000000000e+000 3.665847470533e+005 3.009553703230e+005 0.000000000000e+000 0.000000000000e+000 0.000000000000e+000 2.982203187550e+005 3.315508041865e+005 3.063062378325e+005 3.245288826181e+005 3.793928103384e+005 3.608575893577e+005 3.753373240630e+005 3.710752210009e+005 3.608541415486e+005 2.377333505504e+005 2.591120129047e+005 2.779442203087e+005 2.930012318111e+005 4.105148849565e+003 3.508412731989e+005 0.000000000000e+000 2.276834879488e+005 1.867327818114e+005 7.471794155870e+003 1.444006752935e+005 0.000000000000e+000 7.683287197345e+004 2.382926056945e+005 2.591343052578e+005 2.778887221455e+005 2.929502852519e+005 3.507734936051e+005 3.348960507357e+005 3.476565041111e+005 3.476543419677e+005 7.601182806692e+004 3.344737733730e+005 1.444167835519e+005 1.866412358580e+005 2.276571815228e+005 0.000000000000e+000 0.000000000000e+000 3.824354670945e+005 3.824426937290e+005 0.000000000000e+000 3.789506830498e+005 0.000000000000e+000 0.000000000000e+000 3.775256490178e+005 0.000000000000e+000 3.753530817985e+005 3.789612088970e+005 3.247196679011e+005 3.057160644452e+005 3.602986151767e+005 3.752607732719e+005 3.253243788018e+005 3.666950393683e+005 3.668386786839e+005 3.057402269443e+005 3.709669727372e+005 3.208440319881e+005 3.141292970312e+005 3.711259431945e+005 3.414910389066e+005 2.010835726594e+005 1.680560913771e+005 1.200267937927e+005 0.000000000000e+000 0.000000000000e+000 2.164357816991e+005 3.009809847088e+005 2.847733117464e+005 2.690963883702e+005 2.512385779115e+005 3.182335427553e+005 3.667731695013e+005 3.110254018523e+005 3.178027818727e+005 0.000000000000e+000 0.000000000000e+000 3.566754085980e+005 3.309394584384e+005 3.775554915379e+005 3.796159219074e+005 0.000000000000e+000 3.710230843010e+005 2.348051167142e+005 2.579898769698e+005 2.747886461239e+005 2.897748905434e+005 2.087431866868e+005 2.091292122548e+005 2.311355299902e+005 1.745498318897e+005 1.322229804779e+005 3.256548374179e+005 3.620429804656e+004 3.379691957086e+005 0.000000000000e+000 3.503631689587e+005 0.000000000000e+000 0.000000000000e+000 3.582836225089e+004 1.321591565723e+005 1.756896289885e+005 3.503794899900e+005 3.379774631031e+005 2.897500615315e+005 2.748019230119e+005 2.580040507406e+005 0.000000000000e+000 3.601123879524e+005 3.017861401974e+005 0.000000000000e+000 0.000000000000e+000 0.000000000000e+000 3.573205305510e+005 3.609605926660e+005 3.753394494292e+005 3.144203266978e+005 0.000000000000e+000 0.000000000000e+000 1.077874389228e+005 1.611702057095e+005 1.978864273302e+005 3.546734901489e+005 3.418688606595e+005 3.318200639280e+005 2.447552686667e+005 2.818387194403e+005 2.982935843122e+005 2.659479847554e+005 2.200266912705e+005 0.000000000000e+000 0.000000000000e+000 0.000000000000e+000 0.000000000000e+000 1.352391931907e+005 1.790228871808e+005 3.378923954188e+005 2.898257736039e+005 2.738966392755e+005 2.548030122762e+005 3.818220040638e+005 3.178927906726e+005 2.090641626929e+005 2.087419621151e+005 3.051292379074e+005 0.000000000000e+000 3.850319969687e+005 3.281290206052e+005 3.007018876177e+005 1.937375456701e+005 1.577911349417e+005 1.027534300985e+005 0.000000000000e+000 0.000000000000e+000 3.322335853855e+005 3.439027734789e+005 3.546011585696e+005 2.653323272198e+005 2.447286217554e+005 2.978744256429e+005 2.817145557448e+005 0.000000000000e+000 0.000000000000e+000 2.817049154874e+005 2.653156962680e+005 1.027033170286e+005 2.447318695591e+005 1.577425492532e+005 1.936627572630e+005 3.439254638456e+005 2.203172895140e+005 2.203761429870e+005 3.665639828528e+005 3.217296508363e+005 3.687855193573e+005 2.986768521410e+005 3.152022253884e+005 0.000000000000e+000 0.000000000000e+000 3.102421719727e+005 3.067605870395e+005 3.148357373198e+005 2.045132030972e+005 2.352928022122e+005 2.312628921447e+005 2.118409122709e+005 2.513227742186e+005 2.697435836344e+005 2.889686880118e+005 1.819341666806e+005 3.480736288627e+005 3.372023807681e+005 0.000000000000e+000 6.783934605730e+004 1.411038639533e+005 0.000000000000e+000 3.480708663829e+005 6.790040080185e+004 3.371983219924e+005 2.889656351007e+005 2.697215387299e+005 2.517072496894e+005 1.411101196449e+005 1.819422852328e+005 3.819160971891e+005 3.752138282906e+005 0.000000000000e+000 3.819091519187e+005 2.346596529719e+005 2.347458616787e+005 3.483489566766e+005 3.483555851153e+005 4.880301927425e+004 4.928852454879e+004 0.000000000000e+000 3.709232104675e+005 3.774591019912e+005 3.600966945691e+005 3.690364826654e+005 0.000000000000e+000 3.850340518998e+005 0.000000000000e+000 3.850323829314e+005 3.730494919380e+005 0.000000000000e+000 0.000000000000e+000 1.793199999068e+005 1.347504779327e+005 3.378160784371e+005 2.548907907684e+005 2.900259544932e+005 2.742491346671e+005 0.000000000000e+000 3.643906201621e+005 3.643476215939e+005 3.753530196004e+005 3.061090948442e+005 3.248772768008e+005 3.753749180342e+005 3.607029669236e+005 3.544996394705e+005 3.209872399640e+005 3.638405492719e+005 0.000000000000e+000 0.000000000000e+000 3.239092866178e+005 3.065133452390e+005 0.000000000000e+000 3.257695118883e+005 3.063712141210e+005 3.103244440877e+005 0.000000000000e+000 3.569550943125e+005 0.000000000000e+000 2.853923484738e+005 2.686281450761e+005 2.515800184293e+005 2.127996269343e+005 3.417095297597e+005 1.164730006799e+005 3.308676771103e+005 1.687047352488e+005 2.050016225287e+005 0.000000000000e+000 3.668293334109e+005 3.111123821296e+005 3.176732297667e+005 3.256168063875e+005 3.711552976648e+005 0.000000000000e+000 3.850342023356e+005 0.000000000000e+000 3.851755460033e+005 3.775938472313e+005 3.604703638148e+005 3.154854117693e+005 3.209740168244e+005 0.000000000000e+000 3.324771883311e+005 2.974866186253e+005 3.643594197133e+005 3.060396800362e+005 3.689099118398e+005 1.902732934107e+005 1.502294551368e+005 8.719123470171e+004 3.327061922545e+005 3.446289486868e+005 7.507057687645e+004 0.000000000000e+000 1.443039625315e+005 9.653356152272e+003 1.865243836065e+005 3.476924202171e+005 3.345064084890e+005 3.502762366712e+005 2.929084097295e+005 2.590299245205e+005 2.752433350517e+005 2.384891273573e+005 0.000000000000e+000 0.000000000000e+000 3.510817304753e+005 2.273111928777e+005 2.934847666844e+005 2.786240247233e+005 2.592799611394e+005 2.430740739199e+005 2.277447874186e+005 2.203501855725e+005 2.447214866152e+005 2.817201581351e+005 2.653591222292e+005 2.978777269065e+005 0.000000000000e+000 0.000000000000e+000 1.026631370986e+005 1.936843473198e+005 1.577056599809e+005 3.545935640786e+005 3.439234547588e+005 3.322579019483e+005 3.249293251946e+005 3.608460565381e+005 0.000000000000e+000 3.775877325789e+005 2.278926280345e+005 2.383574666636e+005 2.589285550011e+005 2.776665127306e+005 2.927975015746e+005 1.506965001116e+004 0.000000000000e+000 3.501793122589e+005 7.337019461620e+004 1.441709694398e+005 1.863745418030e+005 3.478831788443e+005 3.345562007014e+005 3.150414631119e+005 0.000000000000e+000 3.179506310881e+005 0.000000000000e+000 2.235097592495e+005 2.202517273131e+005 2.445223668205e+005 2.650095885590e+005 2.814724671231e+005 2.975650284992e+005 0.000000000000e+000 0.000000000000e+000 1.040642437859e+005 1.615519793788e+005 1.932457548917e+005 3.438177405225e+005 1.938131953749e+005 2.815924486017e+005 2.629609096180e+005 2.445704153323e+005 1.578407957264e+005 1.027974206366e+005 3.321977222409e+005 0.000000000000e+000 3.438809530817e+005 0.000000000000e+000 3.545983415136e+005 3.690203985608e+005 0.000000000000e+000 3.542072316391e+005 0.000000000000e+000 2.785686253608e+005 2.436883896456e+005 2.619817175064e+005 2.939264575818e+005 3.438487416631e+005 9.353282722119e+004 3.321715804713e+005 1.535599036963e+005 1.899926429618e+005 2.237585559083e+005 3.774970994006e+005 0.000000000000e+000 3.850356023034e+005 0.000000000000e+000 0.000000000000e+000 0.000000000000e+000 3.181098046369e+005 3.112682875986e+005 3.645042928306e+005 3.545361859696e+005 0.000000000000e+000 3.771040427767e+005 0.000000000000e+000 0.000000000000e+000 3.606195225702e+005 2.050695800235e+005 1.723767921689e+005 3.282224958558e+005 1.263701497001e+005 3.411108089335e+005 2.514875485057e+005 2.686266018117e+005 2.853269699786e+005 2.128082059816e+005 0.000000000000e+000 3.572076116205e+005 0.000000000000e+000 3.256312433815e+005 3.051970654129e+005 3.183423806546e+005 3.731729719672e+005 3.753376505496e+005 0.000000000000e+000 3.816287244937e+005 0.000000000000e+000 3.816298588430e+005 2.974397561621e+005 3.324609446736e+005 3.007090514200e+005 3.710581194360e+005 0.000000000000e+000 3.818289520714e+005 3.213372693767e+005 3.107091906331e+005 3.184449646672e+005 3.645274917416e+005 3.730717303427e+005 3.688636021381e+005 3.286287601669e+005 3.730777773567e+005 3.668702335742e+005 3.182576892265e+005 3.754504211765e+005 3.732601834519e+005 3.149512673246e+005 3.243117620443e+005 3.105321912863e+005 3.210579711314e+005 0.000000000000e+000 3.793895065752e+005 3.570734040188e+005 2.199644267669e+005 2.119107336019e+005 0.000000000000e+000 0.000000000000e+000 0.000000000000e+000 0.000000000000e+000 1.229353802930e+005 1.723224627743e+005 3.411261478491e+005 1.972969797669e+005 2.044552189703e+005 2.982956184162e+005 3.008340992246e+005 2.845555045532e+005 2.889071491108e+005 2.696475833415e+005 2.655105296219e+005 2.479797570548e+005 2.520288442077e+005 3.796511185324e+005 0.000000000000e+000 0.000000000000e+000 0.000000000000e+000 0.000000000000e+000 3.819422823269e+005 0.000000000000e+000 2.389235979847e+005 2.590865679810e+005 2.784342527636e+005 2.927135617337e+005 2.274772967136e+005 2.157461173901e+005 2.016640340072e+005 1.688631882439e+005 3.283992896771e+005 1.172761932257e+005 3.416480055779e+005 0.000000000000e+000 3.510498120649e+005 0.000000000000e+000 0.000000000000e+000 0.000000000000e+000 0.000000000000e+000 1.172981144826e+005 1.68861