<?xml version="1.0"?>
<VTKFile type="UnstructuredGrid" version="0.1" byte_order="LittleEndian">
  <UnstructuredGrid>
    <Piece NumberOfPoints="2604" NumberOfCells="4910">
      <Points>
        <DataArray type="Float64" NumberOfComponents="3" format="ascii">
          0.000000000000e+000 0.000000000000e+000 0.000000000000e+000
          2.000000000000e+002 0.000000000000e+000 0.000000000000e+000
          2.000000000000e+002 2.000000000000e+001 0.000000000000e+000
          0.000000000000e+000 2.000000000000e+001 0.000000000000e+000
          1.492537313427e+000 0.000000000000e+000 0.000000000000e+000
          2.985074626854e+000 0.000000000000e+000 0.000000000000e+000
          4.477611940281e+000 0.000000000000e+000 0.000000000000e+000
          5.970149253708e+000 0.000000000000e+000 0.000000000000e+000
          7.462686567135e+000 0.000000000000e+000 0.000000000000e+000
          8.955223880561e+000 0.000000000000e+000 0.000000000000e+000
          1.044776119399e+001 0.000000000000e+000 0.000000000000e+000
          1.194029850741e+001 0.000000000000e+000 0.000000000000e+000
          1.343283582084e+001 0.000000000000e+000 0.000000000000e+000
          1.492537313427e+001 0.000000000000e+000 0.000000000000e+000
          1.641791044770e+001 0.000000000000e+000 0.000000000000e+000
          1.791044776112e+001 0.000000000000e+000 0.000000000000e+000
          1.940298507455e+001 0.000000000000e+000 0.000000000000e+000
          2.089552238798e+001 0.000000000000e+000 0.000000000000e+000
          2.238805970141e+001 0.000000000000e+000 0.000000000000e+000
          2.388059701484e+001 0.000000000000e+000 0.000000000000e+000
          2.537313432826e+001 0.000000000000e+000 0.000000000000e+000
          2.686567164169e+001 0.000000000000e+000 0.000000000000e+000
          2.835820895511e+001 0.000000000000e+000 0.000000000000e+000
          2.985074626854e+001 0.000000000000e+000 0.000000000000e+000
          3.134328358196e+001 0.000000000000e+000 0.000000000000e+000
          3.283582089539e+001 0.000000000000e+000 0.000000000000e+000
          3.432835820881e+001 0.000000000000e+000 0.000000000000e+000
          3.582089552224e+001 0.000000000000e+000 0.000000000000e+000
          3.731343283566e+001 0.000000000000e+000 0.000000000000e+000
          3.880597014909e+001 0.000000000000e+000 0.000000000000e+000
          4.029850746251e+001 0.000000000000e+000 0.000000000000e+000
          4.179104477594e+001 0.000000000000e+000 0.000000000000e+000
          4.328358208936e+001 0.000000000000e+000 0.000000000000e+000
          4.477611940279e+001 0.000000000000e+000 0.000000000000e+000
          4.626865671621e+001 0.000000000000e+000 0.000000000000e+000
          4.776119402964e+001 0.000000000000e+000 0.000000000000e+000
          4.925373134306e+001 0.000000000000e+000 0.000000000000e+000
          5.074626865649e+001 0.000000000000e+000 0.000000000000e+000
          5.223880596991e+001 0.000000000000e+000 0.000000000000e+000
          5.373134328334e+001 0.000000000000e+000 0.000000000000e+000
          5.522388059676e+001 0.000000000000e+000 0.000000000000e+000
          5.671641791019e+001 0.000000000000e+000 0.000000000000e+000
          5.820895522361e+001 0.000000000000e+000 0.000000000000e+000
          5.970149253704e+001 0.000000000000e+000 0.000000000000e+000
          6.119402985046e+001 0.000000000000e+000 0.000000000000e+000
          6.268656716389e+001 0.000000000000e+000 0.000000000000e+000
          6.417910447732e+001 0.000000000000e+000 0.000000000000e+000
          6.567164179075e+001 0.000000000000e+000 0.000000000000e+000
          6.716417910418e+001 0.000000000000e+000 0.000000000000e+000
          6.865671641761e+001 0.000000000000e+000 0.000000000000e+000
          7.014925373104e+001 0.000000000000e+000 0.000000000000e+000
          7.164179104447e+001 0.000000000000e+000 0.000000000000e+000
          7.313432835790e+001 0.000000000000e+000 0.000000000000e+000
          7.462686567133e+001 0.000000000000e+000 0.000000000000e+000
          7.611940298476e+001 0.000000000000e+000 0.000000000000e+000
          7.761194029819e+001 0.000000000000e+000 0.000000000000e+000
          7.910447761162e+001 0.000000000000e+000 0.000000000000e+000
          8.059701492505e+001 0.000000000000e+000 0.000000000000e+000
          8.208955223848e+001 0.000000000000e+000 0.000000000000e+000
          8.358208955191e+001 0.000000000000e+000 0.000000000000e+000
          8.507462686534e+001 0.000000000000e+000 0.000000000000e+000
          8.656716417877e+001 0.000000000000e+000 0.000000000000e+000
          8.805970149220e+001 0.000000000000e+000 0.000000000000e+000
          8.955223880563e+001 0.000000000000e+000 0.000000000000e+000
          9.104477611907e+001 0.000000000000e+000 0.000000000000e+000
          9.253731343250e+001 0.000000000000e+000 0.000000000000e+000
          9.402985074593e+001 0.000000000000e+000 0.000000000000e+000
          9.552238805936e+001 0.000000000000e+000 0.000000000000e+000
          9.701492537279e+001 0.000000000000e+000 0.000000000000e+000
          9.850746268622e+001 0.000000000000e+000 0.000000000000e+000
          9.999999999965e+001 0.000000000000e+000 0.000000000000e+000
          1.014925373131e+002 0.000000000000e+000 0.000000000000e+000
          1.029850746265e+002 0.000000000000e+000 0.000000000000e+000
          1.044776119399e+002 0.000000000000e+000 0.000000000000e+000
          1.059701492534e+002 0.000000000000e+000 0.000000000000e+000
          1.074626865668e+002 0.000000000000e+000 0.000000000000e+000
          1.089552238802e+002 0.000000000000e+000 0.000000000000e+000
          1.104477611937e+002 0.000000000000e+000 0.000000000000e+000
          1.119402985071e+002 0.000000000000e+000 0.000000000000e+000
          1.134328358205e+002 0.000000000000e+000 0.000000000000e+000
          1.149253731340e+002 0.000000000000e+000 0.000000000000e+000
          1.164179104474e+002 0.000000000000e+000 0.000000000000e+000
          1.179104477608e+002 0.000000000000e+000 0.000000000000e+000
          1.194029850742e+002 0.000000000000e+000 0.000000000000e+000
          1.208955223877e+002 0.000000000000e+000 0.000000000000e+000
          1.223880597011e+002 0.000000000000e+000 0.000000000000e+000
          1.238805970145e+002 0.000000000000e+000 0.000000000000e+000
          1.253731343280e+002 0.000000000000e+000 0.000000000000e+000
          1.268656716414e+002 0.000000000000e+000 0.000000000000e+000
          1.283582089548e+002 0.000000000000e+000 0.000000000000e+000
          1.298507462683e+002 0.000000000000e+000 0.000000000000e+000
          1.313432835817e+002 0.000000000000e+000 0.000000000000e+000
          1.328358208952e+002 0.000000000000e+000 0.000000000000e+000
          1.343283582086e+002 0.000000000000e+000 0.000000000000e+000
          1.358208955220e+002 0.000000000000e+000 0.000000000000e+000
          1.373134328355e+002 0.000000000000e+000 0.000000000000e+000
          1.388059701489e+002 0.000000000000e+000 0.000000000000e+000
          1.402985074624e+002 0.000000000000e+000 0.000000000000e+000
          1.417910447758e+002 0.000000000000e+000 0.000000000000e+000
          1.432835820892e+002 0.000000000000e+000 0.000000000000e+000
          1.447761194027e+002 0.000000000000e+000 0.000000000000e+000
          1.462686567161e+002 0.000000000000e+000 0.000000000000e+000
          1.477611940296e+002 0.000000000000e+000 0.000000000000e+000
          1.492537313430e+002 0.000000000000e+000 0.000000000000e+000
          1.507462686564e+002 0.000000000000e+000 0.000000000000e+000
          1.522388059699e+002 0.000000000000e+000 0.000000000000e+000
          1.537313432833e+002 0.000000000000e+000 0.000000000000e+000
          1.552238805968e+002 0.000000000000e+000 0.000000000000e+000
          1.567164179102e+002 0.000000000000e+000 0.000000000000e+000
          1.582089552237e+002 0.000000000000e+000 0.000000000000e+000
          1.597014925371e+002 0.000000000000e+000 0.000000000000e+000
          1.611940298505e+002 0.000000000000e+000 0.000000000000e+000
          1.626865671640e+002 0.000000000000e+000 0.000000000000e+000
          1.641791044774e+002 0.000000000000e+000 0.000000000000e+000
          1.656716417909e+002 0.000000000000e+000 0.000000000000e+000
          1.671641791043e+002 0.000000000000e+000 0.000000000000e+000
          1.686567164177e+002 0.000000000000e+000 0.000000000000e+000
          1.701492537312e+002 0.000000000000e+000 0.000000000000e+000
          1.716417910446e+002 0.000000000000e+000 0.000000000000e+000
          1.731343283581e+002 0.000000000000e+000 0.000000000000e+000
          1.746268656715e+002 0.000000000000e+000 0.000000000000e+000
          1.761194029849e+002 0.000000000000e+000 0.000000000000e+000
          1.776119402984e+002 0.000000000000e+000 0.000000000000e+000
          1.791044776118e+002 0.000000000000e+000 0.000000000000e+000
          1.805970149253e+002 0.000000000000e+000 0.000000000000e+000
          1.820895522387e+002 0.000000000000e+000 0.000000000000e+000
          1.835820895521e+002 0.000000000000e+000 0.000000000000e+000
          1.850746268656e+002 0.000000000000e+000 0.000000000000e+000
          1.865671641790e+002 0.000000000000e+000 0.000000000000e+000
          1.880597014925e+002 0.000000000000e+000 0.000000000000e+000
          1.895522388059e+002 0.000000000000e+000 0.000000000000e+000
          1.910447761194e+002 0.000000000000e+000 0.000000000000e+000
          1.925373134328e+002 0.000000000000e+000 0.000000000000e+000
          1.940298507462e+002 0.000000000000e+000 0.000000000000e+000
          1.955223880597e+002 0.000000000000e+000 0.000000000000e+000
          1.970149253731e+002 0.000000000000e+000 0.000000000000e+000
          1.985074626866e+002 0.000000000000e+000 0.000000000000e+000
          2.000000000000e+002 1.428571428570e+000 0.000000000000e+000
          2.000000000000e+002 2.857142857140e+000 0.000000000000e+000
[...]
      <PointData Scalars="Capillary_Pressure">
        <DataArray type="Float64" Name="Capillary_Pressure" format="ascii">
          3.855664434687e+005 0.000000000000e+000 0.000000000000e+000 3.855687471765e+005 3.857944060900e+005 3.830605621336e+005 3.821986359741e+005 3.802666920480e+005 3.799938015681e+005 3.780983069364e+005 3.760702259788e+005 3.759942593716e+005 3.738248810742e+005 3.736567669632e+005 3.717812362266e+005 3.694093723811e+005 3.694507918975e+005 3.674330043462e+005 3.670243277096e+005 3.649196695900e+005 3.615239233607e+005 3.613191418935e+005 3.607536758321e+005 3.577476603486e+005 3.574125299600e+005 3.552263815723e+005 3.546018254996e+005 3.514596958351e+005 3.509596076014e+005 3.488936006239e+005 3.482565172063e+005 3.450560792532e+005 3.445310396343e+005 3.425527016224e+005 3.418167740149e+005 3.382155439830e+005 3.381323338317e+005 3.355227063592e+005 3.331309511644e+005 3.328459147016e+005 3.320514714018e+005 3.288909273627e+005 3.262187307570e+005 3.258478431855e+005 3.221861277105e+005 3.217178751654e+005 3.188872221304e+005 3.183989543508e+005 3.159592494650e+005 3.150523003124e+005 3.109636217179e+005 3.107748143168e+005 3.069181020502e+005 3.063604854807e+005 3.023965641155e+005 3.010327319480e+005 2.988463651721e+005 2.983819103967e+005 2.972539253776e+005 2.934616125012e+005 2.902391007909e+005 2.898681515380e+005 2.858188332011e+005 2.851168980179e+005 2.821933676349e+005 2.788156096661e+005 2.758037524648e+005 2.751851511440e+005 2.706340703959e+005 2.690325276318e+005 2.664196730976e+005 2.632674468716e+005 2.624096897237e+005 2.595321802428e+005 2.557969448309e+005 2.524669912440e+005 2.519209129203e+005 2.483760233071e+005 2.451321993753e+005 2.438195594679e+005 2.381134591952e+005 2.347316760099e+005 2.315925382510e+005 2.279863188502e+005 2.244516820558e+005 2.207218860969e+005 2.199938101214e+005 2.164805211360e+005 2.125938353211e+005 2.090530715099e+005 2.018299011927e+005 1.979564799037e+005 1.940320476760e+005 1.896700880956e+005 1.870281958515e+005 1.794511214518e+005 1.749276989302e+005 1.724418309093e+005 1.642847221348e+005 1.580530847541e+005 1.549776087475e+005 1.448378771609e+005 1.382956947834e+005 1.312070247974e+005 1.224280758019e+005 1.131999148859e+005 1.031158419596e+005 9.089012330308e+004 7.739811874283e+004 6.053729892016e+004 3.857195148030e+004 7.070568534076e+003 0.000000000000e+000 0.000000000000e+000 0.000000000000e+000 0.000000000000e+000 0.000000000000e+000 0.000000000000e+000 0.000000000000e+000 0.000000000000e+000 0.000000000000e+000 0.000000000000e+000 0.000000000000e+000 0.000000000000e+000 0.000000000000e+000 0.000000000000e+000 0.000000000000e+000 0.000000000000e+000 0.000000000000e+000 0.000000000000e+000 0.000000000000e+000 0.000000000000e+000 0.000000000000e+000 0.000000000000e+000 0.000000000000e+000 0.000000000000e+000 0.000000000000e+000 0.000000000000e+000 0.000000000000e+000 0.000000000000e+000 0.000000000000e+000 0.000000000000e+000 0.000000000000e+000 0.000000000000e+000 0.000000000000e+000 0.000000000000e+000 0.000000000000e+000 0.000000000000e+000 0.000000000000e+000 0.000000000000e+000 0.000000000000e+000 0.000000000000e+000 0.000000000000e+000 0.000000000000e+000 0.000000000000e+000 0.000000000000e+000 0.000000000000e+000 0.000000000000e+000 0.000000000000e+000 0.000000000000e+000 0.000000000000e+000 0.000000000000e+000 0.000000000000e+000 0.000000000000e+000 0.000000000000e+000 0.000000000000e+000 0.000000000000e+000 0.000000000000e+000 0.000000000000e+000 0.000000000000e+000 0.000000000000e+000 0.000000000000e+000 0.000000000000e+000 0.000000000000e+000 0.000000000000e+000 7.065991639904e+003 3.855993698835e+004 6.050776460214e+004 7.738934155096e+004 9.087497260385e+004 1.031191043153e+005 1.132211529302e+005 1.224163495768e+005 1.312046388680e+005 1.382891660937e+005 1.448306221389e+005 1.549742295559e+005 1.580448671449e+005 1.642677304399e+005 1.724350634295e+005 1.749246124663e+005 1.794563692162e+005 1.870182145775e+005 1.896659807357e+005 1.940223097054e+005 1.979383047374e+005 2.018117910479e+005 2.090454166352e+005 2.125993948550e+005 2.164850383668e+005 2.199923974921e+005 2.207203198393e+005 2.244601425536e+005 2.279969789367e+005 2.315829304939e+005 2.347366013661e+005 2.380923055706e+005 2.438107873810e+005 2.451154879005e+005 2.483809682177e+005 2.519061889500e+005 2.524550490345e+005 2.557834869028e+005 2.595205190784e+005 2.624241823729e+005 2.657671765427e+005 2.664194866331e+005 2.690154779976e+005 2.706108521423e+005 2.751981400358e+005 2.783771486705e+005 2.788019603007e+005 2.821280814456e+005 2.851205547094e+005 2.858221994550e+005 2.898679523637e+005 2.902464696084e+005 2.934911894241e+005 2.972506769119e+005 2.983865770718e+005 2.988614720558e+005 3.010548135117e+005 3.053991686539e+005 3.063814184291e+005 3.069187585217e+005 3.107810606269e+005 3.110053381679e+005 3.150336913791e+005 3.159294006082e+005 3.183862128606e+005 3.188675081075e+005 3.216992907562e+005 3.249616800556e+005 3.258474854049e+005 3.262062900551e+005 3.288855018116e+005 3.320542243609e+005 3.328484344865e+005 3.331232258184e+005 3.355244044141e+005 3.381331393095e+005 3.382137371864e+005 3.418137953035e+005 3.425489104352e+005 3.445285331571e+005 3.450592234962e+005 3.482542198238e+005 3.488926319428e+005 3.509587475046e+005 3.514538131905e+005 3.546030543062e+005 3.552207828270e+005 3.574127206700e+005 3.577516556356e+005 3.607535366315e+005 3.613223551568e+005 3.615323371306e+005 3.649097773563e+005 3.670212644991e+005 3.674340190437e+005 3.694590226479e+005 3.694013136231e+005 3.717618858890e+005 3.718203501375e+005 3.738421429823e+005 3.759908867451e+005 3.760636353940e+005 3.781050229007e+005 3.800000675591e+005 3.802802498329e+005 3.821579059028e+005 3.830629165660e+005 3.857939609966e+005 3.855682292420e+005 3.855657999591e+005 3.855692952556e+005 3.855681151635e+005 3.855656863474e+005 3.855667734965e+005 3.855671494214e+005 3.855653718706e+005 3.855660605707e+005 3.855679215079e+005 3.855675260757e+005 3.855651033609e+005 3.855658433643e+005 0.000000000000e+000 3.780806939164e+005 0.000000000000e+000 0.000000000000e+000 5.163197967265e+004 1.351364691123e+005 1.794844313452e+005 3.611123765353e+005 2.086716479001e+005 3.489277817350e+005 3.383984293453e+005 3.261137714055e+005 3.060153898765e+005 2.904812885449e+005 2.746609772255e+005 2.554164625958e+005 2.350761118658e+005 3.696473298802e+005 3.159481289451e+005 2.207051941628e+005 2.237280147612e+005 2.451110063904e+005 2.657738066464e+005 2.821118787995e+005 2.983887162913e+005 0.000000000000e+000 0.000000000000e+000 1.019070112924e+005 2.983846663332e+005 2.823021791848e+005 2.656201690088e+005 2.447487798540e+005 1.578599026824e+005 1.940162893717e+005 3.552355077648e+005 3.446034989371e+005 3.327769805177e+005 1.939577717456e+005 1.580279116707e+005 1.030981720839e+005 0.000000000000e+000 0.000000000000e+000 3.328735036852e+005 3.445328773905e+005 3.552127271591e+005 0.000000000000e+000 0.000000000000e+000 3.189857874348e+005 3.113270293840e+005 3.736541052160e+005 3.649105994662e+005 0.000000000000e+000 3.802746941303e+005 0.000000000000e+000 3.802828011476e+005 3.734139755490e+005 3.649565636802e+005 3.218479991137e+005 3.105389394297e+005 0.000000000000e+000 2.350670700423e+005 0.000000000000e+000 2.554116813303e+005 2.746516168769e+005 2.904656082105e+005 3.056402575857e+005 2.087231280977e+005 4.997277493377e+004 1.342440629057e+005 1.794421883540e+005 3.489653491882e+005 3.384664026635e+005 2.096574802061e+005 1.795980713802e+005 1.350579613485e+005 5.053727060145e+004 2.904810680391e+005 2.746455525265e+005 2.554345757682e+005 0.000000000000e+000 2.350540733073e+005 0.000000000000e+000 3.261808630633e+005 3.384213233824e+005 3.489589072150e+005 3.611146169016e+005 0.000000000000e+000 0.000000000000e+000 3.760623625764e+005 3.607424437518e+005 3.022179949901e+005 3.283795232964e+005 0.000000000000e+000 3.822126605629e+005 3.696330485369e+005 3.780448058886e+005 3.696494581745e+005 3.159955325273e+005 3.214638721057e+005 3.110262098742e+005 3.738351622220e+005 3.648791743989e+005 3.159200423246e+005 0.000000000000e+000 9.285745761453e+004 0.000000000000e+000 1.550902608440e+005 0.000000000000e+000 1.900955769519e+005 2.440174289666e+005 2.789853390758e+005 2.944067765111e+005 2.625325496659e+005 3.546189802437e+005 3.330692181383e+005 3.445676487538e+005 2.243337607627e+005 3.159542236201e+005 0.000000000000e+000 3.830500227249e+005 0.000000000000e+000 3.830456062648e+005 2.394909538227e+005 2.596519380896e+005 2.790118433991e+005 2.939159834220e+005 2.018476583002e+005 2.278296670119e+005 2.165493607396e+005 1.689525895789e+005 3.290840957089e+005 1.167687986252e+005 3.423375267900e+005 0.000000000000e+000 3.517455837504e+005 0.000000000000e+000 0.000000000000e+000 0.000000000000e+000 0.000000000000e+000 0.000000000000e+000 1.175787870167e+005 8.672306828487e+004 1.690930239460e+005 1.516692652518e+005 3.516831531070e+005 1.905250957318e+005 2.018660999681e+005 3.422907532680e+005 3.452451693251e+005 2.938996679193e+005 2.789913475038e+005 2.595787777225e+005 2.854453982174e+005 2.667672757163e+005 2.434275587770e+005 2.480316139243e+005 3.331737988530e+005 2.165306408715e+005 2.275741809977e+005 0.000000000000e+000 3.575821195422e+005 0.000000000000e+000 3.451726669226e+005 8.874247175766e+004 3.332571721859e+005 1.510715231679e+005 3.012554465093e+005 2.855786633384e+005 2.669056145279e+005 2.512024814904e+005 1.906816830246e+005 3.696284299519e+005 0.000000000000e+000 0.000000000000e+000 3.103811041287e+005 3.244082197822e+005 3.647260078460e+005 2.166476317009e+005 2.667542091466e+005 2.479741049744e+005 2.853983936050e+005 3.012362598715e+005 3.575529516658e+005 3.423882109075e+005 0.000000000000e+000 3.291152664869e+005 0.000000000000e+000 1.182214154914e+005 2.017315981804e+005 1.651735569663e+005 3.574190885548e+005 0.000000000000e+000 0.000000000000e+000 3.145417378573e+005 3.738272518362e+005 0.000000000000e+000 2.163433834206e+005 2.052246978151e+005 1.725510536997e+005 3.287068177078e+005 1.231918013022e+005 3.417713403914e+005 2.858852316181e+005 2.690700160715e+005 2.519866540170e+005 0.000000000000e+000 3.577472053567e+005 0.000000000000e+000 3.672106023031e+005 3.014775666709e+005 0.000000000000e+000 0.000000000000e+000 0.000000000000e+000 2.987387424994e+005 3.321395028245e+005 3.068465514718e+005 3.251025281384e+005 3.800083110451e+005 3.614878753285e+005 3.759586105502e+005 3.716972038268e+005 3.614834041209e+005 2.381228068992e+005 2.595353182403e+005 2.784048577140e+005 2.935035647406e+005 5.180054601279e+003 3.514632524241e+005 0.000000000000e+000 2.280504262831e+005 1.870438456113e+005 8.526864068758e+003 1.447248077714e+005 0.000000000000e+000 7.733673983766e+004 2.386783156136e+005 2.595541862260e+005 2.783450959623e+005 2.934502141726e+005 3.513971792439e+005 3.354958048979e+005 3.482690050564e+005 3.482676263085e+005 7.652177754575e+004 3.350753378535e+005 1.447405973876e+005 1.869551870211e+005 2.280258015262e+005 0.000000000000e+000 0.000000000000e+000 3.830476118182e+005 3.830542107872e+005 0.000000000000e+000 3.795673452276e+005 0.000000000000e+000 0.000000000000e+000 3.781451832810e+005 0.000000000000e+000 3.759753748178e+005 3.795786170050e+005 3.252910523015e+005 3.062562862692e+005 3.609280268173e+005 3.758829761425e+005 3.259004385729e+005 3.673209596841e+005 3.674636372041e+005 3.062722315000e+005 3.715917460765e+005 3.214069479464e+005 3.146765403003e+005 3.717519207935e+005 3.420951122613e+005 2.014166448343e+005 1.683696524174e+005 1.203827291852e+005 0.000000000000e+000 0.000000000000e+000 2.167793737080e+005 3.015038176668e+005 2.852619288656e+005 2.695420689113e+005 2.516399142816e+005 3.187953768923e+005 3.673990802452e+005 3.115772057303e+005 3.183694216732e+005 0.000000000000e+000 0.000000000000e+000 3.573005534387e+005 3.315175160741e+005 3.781754286811e+005 3.802323471887e+005 0.000000000000e+000 3.716484345969e+005 2.351882251243e+005 2.584083224902e+005 2.752482354176e+005 2.902802917728e+005 2.090725183580e+005 2.094670479066e+005 2.315128379528e+005 1.748657617861e+005 1.325546596393e+005 3.262363272633e+005 3.701309190382e+004 3.385752238404e+005 0.000000000000e+000 3.509801623457e+005 0.000000000000e+000 0.000000000000e+000 3.664075448799e+004 1.324900966260e+005 1.760001769501e+005 3.509962099186e+005 3.385842184691e+005 2.902540989010e+005 2.752599038550e+005 2.584201091723e+005 0.000000000000e+000 3.607350431250e+005 3.023182634968e+005 0.000000000000e+000 0.000000000000e+000 0.000000000000e+000 3.579492844249e+005 3.615881714274e+005 3.759614639268e+005 3.149692283075e+005 0.000000000000e+000 0.000000000000e+000 1.081732019202e+005 1.614843412650e+005 1.982045886978e+005 3.552986305449e+005 3.424798916248e+005 3.324072027848e+005 2.451558999866e+005 2.823125250507e+005 2.988095943487e+005 2.663854995843e+005 2.203751061519e+005 0.000000000000e+000 0.000000000000e+000 0.000000000000e+000 0.000000000000e+000 1.355667234769e+005 1.793318137656e+005 3.384941663369e+005 2.903147257433e+005 2.743454155175e+005 2.552130965722e+005 3.824335720784e+005 3.184456243050e+005 2.093998787837e+005 2.090852751387e+005 3.056572432535e+005 0.000000000000e+000 3.856367419659e+005 3.287136447856e+005 3.012278263433e+005 1.940666516188e+005 1.581072039507e+005 1.031530986754e+005 0.000000000000e+000 0.000000000000e+000 3.328224636087e+005 3.445141411103e+005 3.552241261966e+005 2.657673947635e+005 2.451200171499e+005 2.983866455444e+005 2.821901832738e+005 0.000000000000e+000 0.000000000000e+000 2.821864266653e+005 2.657511351516e+005 1.031030840531e+005 2.451229225888e+005 1.580585196043e+005 1.939899359640e+005 3.445376873278e+005 2.206741699670e+005 2.207324658017e+005 3.671886654377e+005 3.223021301337e+005 3.694086970554e+005 2.992002632198e+005 3.157568722887e+005 0.000000000000e+000 0.000000000000e+000 3.107883377668e+005 3.073031906008e+005 3.153878859576e+005 2.048500341917e+005 2.356711042216e+005 2.316313906233e+005 2.121866595597e+005 2.517363088331e+005 2.701958947543e+005 2.894564396981e+005 1.822535103414e+005 3.486886819777e+005 3.377987609214e+005 0.000000000000e+000 6.839577572011e+004 1.414299124288e+005 0.000000000000e+000 3.486862077002e+005 6.845634016958e+004 3.377953697854e+005 2.894557160672e+005 2.701750107311e+005 2.521203313243e+005 1.414356501538e+005 1.822595334982e+005 3.825283158567e+005 3.758366631770e+005 0.000000000000e+000 3.825210662655e+005 2.350291598606e+005 2.351198843367e+005 3.489696798347e+005 3.489749017171e+005 4.949989091091e+004 4.997972555734e+004 0.000000000000e+000 3.715502872206e+005 3.780777003135e+005 3.607185863997e+005 3.696607082674e+005 0.000000000000e+000 3.856396503624e+005 0.000000000000e+000 3.856376921574e+005 3.736746054878e+005 0.000000000000e+000 0.000000000000e+000 1.796309641969e+005 1.350832022710e+005 3.384178071582e+005 2.553032889007e+005 2.905188465132e+005 2.747010263462e+005 0.000000000000e+000 3.650154125866e+005 3.649730154458e+005 3.759760050413e+005 3.066451920306e+005 3.254494436471e+005 3.759967415902e+005 3.613304450525e+005 3.551218584773e+005 3.215527189329e+005 3.644650134645e+005 0.000000000000e+000 0.000000000000e+000 3.244794044913e+005 3.070535363732e+005 0.000000000000e+000 3.263489456331e+005 3.069123827643e+005 3.108669424881e+005 0.000000000000e+000 3.575782620060e+005 0.000000000000e+000 2.858803611257e+005 2.690829776002e+005 2.519810490138e+005 2.131368647183e+005 3.423166986639e+005 1.168367606958e+005 3.314500015932e+005 1.690108713699e+005 2.053285338515e+005 0.000000000000e+000 3.674526280889e+005 3.116650168240e+005 3.182336589461e+005 3.261954348531e+005 3.717840428443e+005 0.000000000000e+000 3.856405823017e+005 0.000000000000e+000 3.857810068843e+005 3.782136535225e+005 3.610937060625e+005 3.160438461949e+005 3.215375152166e+005 0.000000000000e+000 3.330711018291e+005 2.979959177421e+005 3.649841307132e+005 3.065743378625e+005 3.695249661634e+005 1.905832121685e+005 1.505478578881e+005 8.764696203384e+004 3.333069864863e+005 3.452462413142e+005 7.558538024495e+004 0.000000000000e+000 1.446267989670e+005 1.069399369455e+004 1.868374071970e+005 3.483046076072e+005 3.351114018772e+005 3.509002484919e+005 2.934079117032e+005 2.594452606186e+005 2.757069612799e+005 2.388720951087e+005 0.000000000000e+000 0.000000000000e+000 3.517055005368e+005 2.276704187250e+005 2.939901256413e+005 2.790959420709e+005 2.597201964890e+005 2.434533742987e+005 2.281166934894e+005 2.207072775814e+005 2.451126039622e+005 2.821926559245e+005 2.657854425713e+005 2.983901459650e+005 0.000000000000e+000 0.000000000000e+000 1.030620974814e+005 1.940126765784e+005 1.580223614061e+005 3.552167326175e+005 3.445367077610e+005 3.328491094950e+005 3.255047938949e+005 3.614725613511e+005 0.000000000000e+000 3.782073681535e+005 2.282606787698e+005 2.387394044355e+005 2.593442654797e+005 2.781267505744e+005 2.932954820443e+005 1.607455453907e+004 0.000000000000e+000 3.508023647365e+005 7.389525633484e+004 1.444931521158e+005 1.866886327150e+005 3.484967347648e+005 3.351574847716e+005 3.156092819550e+005 0.000000000000e+000 3.185073640043e+005 0.000000000000e+000 2.238621376076e+005 2.206051758323e+005 2.449103648550e+005 2.654490158130e+005 2.819524734988e+005 2.980715798683e+005 0.000000000000e+000 0.000000000000e+000 1.044604933628e+005 1.618601077132e+005 1.935675285071e+005 3.444276772250e+005 1.941378096396e+005 2.820649792995e+005 2.634075647176e+005 2.449613368761e+005 1.581562804947e+005 1.031972196561e+005 3.327871492924e+005 0.000000000000e+000 3.444921001485e+005 0.000000000000e+000 3.552211508530e+005 3.696472136879e+005 0.000000000000e+000 3.548277386367e+005 0.000000000000e+000 2.790321898689e+005 2.440813031222e+005 2.624108815293e+005 2.944405793326e+005 3.444608783718e+005 9.396396068694e+004 3.327726605037e+005 1.538761250492e+005 1.903214359248e+005 2.241196606290e+005 3.781161151676e+005 0.000000000000e+000 3.856410859040e+005 0.000000000000e+000 0.000000000000e+000 0.000000000000e+000 3.186663331628e+005 3.118233294867e+005 3.651308936801e+005 3.551584216307e+005 0.000000000000e+000 3.777236041682e+005 0.000000000000e+000 0.000000000000e+000 3.612449902263e+005 2.053991812617e+005 1.726860082847e+005 3.288049486385e+005 1.267089702576e+005 3.417130303748e+005 2.518898358434e+005 2.690776300849e+005 2.858114679784e+005 2.131499435703e+005 0.000000000000e+000 3.578341515666e+005 0.000000000000e+000 3.262103459336e+005 3.057256438953e+005 3.189121828262e+005 3.737980767660e+005 3.759586202201e+005 0.000000000000e+000 3.822411087219e+005 0.000000000000e+000 3.822417119809e+005 2.979466481410e+005 3.330544059092e+005 3.012375353338e+005 3.716807210820e+005 0.000000000000e+000 3.824418770705e+005 3.219083040560e+005 3.112539645957e+005 3.190149811289e+005 3.651538415367e+005 3.736962309365e+005 3.694929996937e+005 3.292190552184e+005 3.737022826818e+005 3.674957048910e+005 3.188135786773e+005 3.760722200167e+005 3.738848266335e+005 3.155055454968e+005 3.248782639850e+005 3.110758689954e+005 3.216259646508e+005 0.000000000000e+000 3.800059564488e+005 3.576975328096e+005 2.203104229906e+005 2.122562567545e+005 0.000000000000e+000 0.000000000000e+000 0.000000000000e+000 0.000000000000e+000 1.232869755642e+005 1.726310569193e+005 3.417291959730e+005 1.976248405520e+005 2.047885716474e+005 2.988148132949e+005 3.013616756897e+005 2.850438835371e+005 2.893927525549e+005 2.701006997121e+005 2.659588437484e+005 2.483745050216e+005 2.524353518344e+005 3.802670524142e+005 0.000000000000e+000 0.000000000000e+000 0.000000000000e+000 0.000000000000e+000 3.825543030477e+005 0.000000000000e+000 2.393123540552e+005 2.595166656941e+005 2.789014610765e+005 2.932243237290e+005 2.278381213978e+005 2.160910011268e+005 2.019900437834e+005 1.691705597210e+005 3.289859116428e+005 1.176384770540e+005 3.422547398616e+005 0.000000000000e+000 3.516737231724e+005 0.000000000000e+000 0.000000000000e+000 0.000000000000e+000 0.000000000000e+000 1.176601198005e+005 1.69169