<?xml version="1.0"?>
<VTKFile type="UnstructuredGrid" version="0.1" byte_order="LittleEndian">
  <UnstructuredGrid>
    <Piece NumberOfPoints="2604" NumberOfCells="4910">
      <Points>
        <DataArray type="Float64" NumberOfComponents="3" format="ascii">
          0.000000000000e+000 0.000000000000e+000 0.000000000000e+000
          2.000000000000e+002 0.000000000000e+000 0.000000000000e+000
          2.000000000000e+002 2.000000000000e+001 0.000000000000e+000
          0.000000000000e+000 2.000000000000e+001 0.000000000000e+000
          1.492537313427e+000 0.000000000000e+000 0.000000000000e+000
          2.985074626854e+000 0.000000000000e+000 0.000000000000e+000
          4.477611940281e+000 0.000000000000e+000 0.000000000000e+000
          5.970149253708e+000 0.000000000000e+000 0.000000000000e+000
          7.462686567135e+000 0.000000000000e+000 0.000000000000e+000
          8.955223880561e+000 0.000000000000e+000 0.000000000000e+000
          1.044776119399e+001 0.000000000000e+000 0.000000000000e+000
          1.194029850741e+001 0.000000000000e+000 0.000000000000e+000
          1.343283582084e+001 0.000000000000e+000 0.000000000000e+000
          1.492537313427e+001 0.000000000000e+000 0.000000000000e+000
          1.641791044770e+001 0.000000000000e+000 0.000000000000e+000
          1.791044776112e+001 0.000000000000e+000 0.000000000000e+000
          1.940298507455e+001 0.000000000000e+000 0.000000000000e+000
          2.089552238798e+001 0.000000000000e+000 0.000000000000e+000
          2.238805970141e+001 0.000000000000e+000 0.000000000000e+000
          2.388059701484e+001 0.000000000000e+000 0.000000000000e+000
          2.537313432826e+001 0.000000000000e+000 0.000000000000e+000
          2.686567164169e+001 0.000000000000e+000 0.000000000000e+000
          2.835820895511e+001 0.000000000000e+000 0.000000000000e+000
          2.985074626854e+001 0.000000000000e+000 0.000000000000e+000
          3.134328358196e+001 0.000000000000e+000 0.000000000000e+000
          3.283582089539e+001 0.000000000000e+000 0.000000000000e+000
          3.432835820881e+001 0.000000000000e+000 0.000000000000e+000
          3.582089552224e+001 0.000000000000e+000 0.000000000000e+000
          3.731343283566e+001 0.000000000000e+000 0.000000000000e+000
          3.880597014909e+001 0.000000000000e+000 0.000000000000e+000
          4.029850746251e+001 0.000000000000e+000 0.000000000000e+000
          4.179104477594e+001 0.000000000000e+000 0.000000000000e+000
          4.328358208936e+001 0.000000000000e+000 0.000000000000e+000
          4.477611940279e+001 0.000000000000e+000 0.000000000000e+000
          4.626865671621e+001 0.000000000000e+000 0.000000000000e+000
          4.776119402964e+001 0.000000000000e+000 0.000000000000e+000
          4.925373134306e+001 0.000000000000e+000 0.000000000000e+000
          5.074626865649e+001 0.000000000000e+000 0.000000000000e+000
          5.223880596991e+001 0.000000000000e+000 0.000000000000e+000
          5.373134328334e+001 0.000000000000e+000 0.000000000000e+000
          5.522388059676e+001 0.000000000000e+000 0.000000000000e+000
          5.671641791019e+001 0.000000000000e+000 0.000000000000e+000
          5.820895522361e+001 0.000000000000e+000 0.000000000000e+000
          5.970149253704e+001 0.000000000000e+000 0.000000000000e+000
          6.119402985046e+001 0.000000000000e+000 0.000000000000e+000
          6.268656716389e+001 0.000000000000e+000 0.000000000000e+000
          6.417910447732e+001 0.000000000000e+000 0.000000000000e+000
          6.567164179075e+001 0.000000000000e+000 0.000000000000e+000
          6.716417910418e+001 0.000000000000e+000 0.000000000000e+000
          6.865671641761e+001 0.000000000000e+000 0.000000000000e+000
          7.014925373104e+001 0.000000000000e+000 0.000000000000e+000
          7.164179104447e+001 0.000000000000e+000 0.000000000000e+000
          7.313432835790e+001 0.000000000000e+000 0.000000000000e+000
          7.462686567133e+001 0.000000000000e+000 0.000000000000e+000
          7.611940298476e+001 0.000000000000e+000 0.000000000000e+000
          7.761194029819e+001 0.000000000000e+000 0.000000000000e+000
          7.910447761162e+001 0.000000000000e+000 0.000000000000e+000
          8.059701492505e+001 0.000000000000e+000 0.000000000000e+000
          8.208955223848e+001 0.000000000000e+000 0.000000000000e+000
          8.358208955191e+001 0.000000000000e+000 0.000000000000e+000
          8.507462686534e+001 0.000000000000e+000 0.000000000000e+000
          8.656716417877e+001 0.000000000000e+000 0.000000000000e+000
          8.805970149220e+001 0.000000000000e+000 0.000000000000e+000
          8.955223880563e+001 0.000000000000e+000 0.000000000000e+000
          9.104477611907e+001 0.000000000000e+000 0.000000000000e+000
          9.253731343250e+001 0.000000000000e+000 0.000000000000e+000
          9.402985074593e+001 0.000000000000e+000 0.000000000000e+000
          9.552238805936e+001 0.000000000000e+000 0.000000000000e+000
          9.701492537279e+001 0.000000000000e+000 0.000000000000e+000
          9.850746268622e+001 0.000000000000e+000 0.000000000000e+000
          9.999999999965e+001 0.000000000000e+000 0.000000000000e+000
          1.014925373131e+002 0.000000000000e+000 0.000000000000e+000
          1.029850746265e+002 0.000000000000e+000 0.000000000000e+000
          1.044776119399e+002 0.000000000000e+000 0.000000000000e+000
          1.059701492534e+002 0.000000000000e+000 0.000000000000e+000
          1.074626865668e+002 0.000000000000e+000 0.000000000000e+000
          1.089552238802e+002 0.000000000000e+000 0.000000000000e+000
          1.104477611937e+002 0.000000000000e+000 0.000000000000e+000
          1.119402985071e+002 0.000000000000e+000 0.000000000000e+000
          1.134328358205e+002 0.000000000000e+000 0.000000000000e+000
          1.149253731340e+002 0.000000000000e+000 0.000000000000e+000
          1.164179104474e+002 0.000000000000e+000 0.000000000000e+000
          1.179104477608e+002 0.000000000000e+000 0.000000000000e+000
          1.194029850742e+002 0.000000000000e+000 0.000000000000e+000
          1.208955223877e+002 0.000000000000e+000 0.000000000000e+000
          1.223880597011e+002 0.000000000000e+000 0.000000000000e+000
          1.238805970145e+002 0.000000000000e+000 0.000000000000e+000
          1.253731343280e+002 0.000000000000e+000 0.000000000000e+000
          1.268656716414e+002 0.000000000000e+000 0.000000000000e+000
          1.283582089548e+002 0.000000000000e+000 0.000000000000e+000
          1.298507462683e+002 0.000000000000e+000 0.000000000000e+000
          1.313432835817e+002 0.000000000000e+000 0.000000000000e+000
          1.328358208952e+002 0.000000000000e+000 0.000000000000e+000
          1.343283582086e+002 0.000000000000e+000 0.000000000000e+000
          1.358208955220e+002 0.000000000000e+000 0.000000000000e+000
          1.373134328355e+002 0.000000000000e+000 0.000000000000e+000
          1.388059701489e+002 0.000000000000e+000 0.000000000000e+000
          1.402985074624e+002 0.000000000000e+000 0.000000000000e+000
          1.417910447758e+002 0.000000000000e+000 0.000000000000e+000
          1.432835820892e+002 0.000000000000e+000 0.000000000000e+000
          1.447761194027e+002 0.000000000000e+000 0.000000000000e+000
          1.462686567161e+002 0.000000000000e+000 0.000000000000e+000
          1.477611940296e+002 0.000000000000e+000 0.000000000000e+000
          1.492537313430e+002 0.000000000000e+000 0.000000000000e+000
          1.507462686564e+002 0.000000000000e+000 0.000000000000e+000
          1.522388059699e+002 0.000000000000e+000 0.000000000000e+000
          1.537313432833e+002 0.000000000000e+000 0.000000000000e+000
          1.552238805968e+002 0.000000000000e+000 0.000000000000e+000
          1.567164179102e+002 0.000000000000e+000 0.000000000000e+000
          1.582089552237e+002 0.000000000000e+000 0.000000000000e+000
          1.597014925371e+002 0.000000000000e+000 0.000000000000e+000
          1.611940298505e+002 0.000000000000e+000 0.000000000000e+000
          1.626865671640e+002 0.000000000000e+000 0.000000000000e+000
          1.641791044774e+002 0.000000000000e+000 0.000000000000e+000
          1.656716417909e+002 0.000000000000e+000 0.000000000000e+000
          1.671641791043e+002 0.000000000000e+000 0.000000000000e+000
          1.686567164177e+002 0.000000000000e+000 0.000000000000e+000
          1.701492537312e+002 0.000000000000e+000 0.000000000000e+000
          1.716417910446e+002 0.000000000000e+000 0.000000000000e+000
          1.731343283581e+002 0.000000000000e+000 0.000000000000e+000
          1.746268656715e+002 0.000000000000e+000 0.000000000000e+000
          1.761194029849e+002 0.000000000000e+000 0.000000000000e+000
          1.776119402984e+002 0.000000000000e+000 0.000000000000e+000
          1.791044776118e+002 0.000000000000e+000 0.000000000000e+000
          1.805970149253e+002 0.000000000000e+000 0.000000000000e+000
          1.820895522387e+002 0.000000000000e+000 0.000000000000e+000
          1.835820895521e+002 0.000000000000e+000 0.000000000000e+000
          1.850746268656e+002 0.000000000000e+000 0.000000000000e+000
          1.865671641790e+002 0.000000000000e+000 0.000000000000e+000
          1.880597014925e+002 0.000000000000e+000 0.000000000000e+000
          1.895522388059e+002 0.000000000000e+000 0.000000000000e+000
          1.910447761194e+002 0.000000000000e+000 0.000000000000e+000
          1.925373134328e+002 0.000000000000e+000 0.000000000000e+000
          1.940298507462e+002 0.000000000000e+000 0.000000000000e+000
          1.955223880597e+002 0.000000000000e+000 0.000000000000e+000
          1.970149253731e+002 0.000000000000e+000 0.000000000000e+000
          1.985074626866e+002 0.000000000000e+000 0.000000000000e+000
          2.000000000000e+002 1.428571428570e+000 0.000000000000e+000
          2.000000000000e+002 2.857142857140e+000 0.000000000000e+000
[...]
      <PointData Scalars="Capillary_Pressure">
        <DataArray type="Float64" Name="Capillary_Pressure" format="ascii">
          3.857323595619e+005 0.000000000000e+000 0.000000000000e+000 3.857346429634e+005 3.859598672474e+005 3.832281951324e+005 3.823661401588e+005 3.804350955349e+005 3.801622147198e+005 3.782676046561e+005 3.762400336602e+005 3.761640533346e+005 3.739955609670e+005 3.738275811378e+005 3.719491829419e+005 3.695783001855e+005 3.696216459256e+005 3.676039066474e+005 3.671947740809e+005 3.650904527301e+005 3.616957487455e+005 3.614899446095e+005 3.609241058512e+005 3.579187339302e+005 3.575827142635e+005 3.553966785551e+005 3.547711860803e+005 3.516296176670e+005 3.511283674245e+005 3.490623758650e+005 3.484239024982e+005 3.452236164804e+005 3.446978334053e+005 3.427192084189e+005 3.419818316744e+005 3.383813544513e+005 3.382956413868e+005 3.356858151670e+005 3.332946232908e+005 3.330074820201e+005 3.322108323517e+005 3.290518412359e+005 3.263765947566e+005 3.260061078507e+005 3.223415477651e+005 3.218731692633e+005 3.190434860723e+005 3.185518028298e+005 3.161113042258e+005 3.152028756389e+005 3.111139806297e+005 3.109236070353e+005 3.070659866822e+005 3.065062355726e+005 3.025429646786e+005 3.011750375075e+005 2.989886720208e+005 2.985215358550e+005 2.973919218454e+005 2.935987759731e+005 2.903761500182e+005 2.900020532439e+005 2.859504636257e+005 2.852495444238e+005 2.823229137012e+005 2.789434860505e+005 2.759310626194e+005 2.753095315354e+005 2.707590373554e+005 2.691543801704e+005 2.665416070217e+005 2.633875282442e+005 2.625258301752e+005 2.596472782243e+005 2.559106600048e+005 2.525807817664e+005 2.520311500359e+005 2.484846930159e+005 2.452396041834e+005 2.439239124324e+005 2.382167100645e+005 2.348366727894e+005 2.316932068809e+005 2.280869535386e+005 2.245503262939e+005 2.208196382779e+005 2.200888649516e+005 2.165742296926e+005 2.126847944584e+005 2.091434022593e+005 2.019212721237e+005 1.980473827319e+005 1.941177654262e+005 1.897576168091e+005 1.871133341251e+005 1.795380040874e+005 1.750135003638e+005 1.725255330655e+005 1.643701252142e+005 1.581390882113e+005 1.550619602301e+005 1.449260057365e+005 1.383853895994e+005 1.312987408863e+005 1.225239827037e+005 1.133013674307e+005 1.032243869362e+005 9.101032423803e+004 7.753520781962e+004 6.070246287449e+004 3.878698790823e+004 7.358992514054e+003 0.000000000000e+000 0.000000000000e+000 0.000000000000e+000 0.000000000000e+000 0.000000000000e+000 0.000000000000e+000 0.000000000000e+000 0.000000000000e+000 0.000000000000e+000 0.000000000000e+000 0.000000000000e+000 0.000000000000e+000 0.000000000000e+000 0.000000000000e+000 0.000000000000e+000 0.000000000000e+000 0.000000000000e+000 0.000000000000e+000 0.000000000000e+000 0.000000000000e+000 0.000000000000e+000 0.000000000000e+000 0.000000000000e+000 0.000000000000e+000 0.000000000000e+000 0.000000000000e+000 0.000000000000e+000 0.000000000000e+000 0.000000000000e+000 0.000000000000e+000 0.000000000000e+000 0.000000000000e+000 0.000000000000e+000 0.000000000000e+000 0.000000000000e+000 0.000000000000e+000 0.000000000000e+000 0.000000000000e+000 0.000000000000e+000 0.000000000000e+000 0.000000000000e+000 0.000000000000e+000 0.000000000000e+000 0.000000000000e+000 0.000000000000e+000 0.000000000000e+000 0.000000000000e+000 0.000000000000e+000 0.000000000000e+000 0.000000000000e+000 0.000000000000e+000 0.000000000000e+000 0.000000000000e+000 0.000000000000e+000 0.000000000000e+000 0.000000000000e+000 0.000000000000e+000 0.000000000000e+000 0.000000000000e+000 0.000000000000e+000 0.000000000000e+000 0.000000000000e+000 0.000000000000e+000 7.354203207237e+003 3.877531775724e+004 6.067366390281e+004 7.752609540591e+004 9.099544791586e+004 1.032275793331e+005 1.133225771285e+005 1.225122308329e+005 1.312964330985e+005 1.383788985105e+005 1.449189935589e+005 1.550583575647e+005 1.581309694466e+005 1.643535673816e+005 1.725185155082e+005 1.750106104497e+005 1.795419231690e+005 1.871044227179e+005 1.897530976599e+005 1.941081821758e+005 1.980283033589e+005 2.019013121480e+005 2.091367572032e+005 2.126897000208e+005 2.165776079439e+005 2.200880385773e+005 2.208168603174e+005 2.245594912479e+005 2.280967712623e+005 2.316837895604e+005 2.348406015490e+005 2.381973301610e+005 2.439139151831e+005 2.452228885372e+005 2.484888265656e+005 2.520166682552e+005 2.525682715095e+005 2.558971055748e+005 2.596360865655e+005 2.625401459102e+005 2.658859929945e+005 2.665407725946e+005 2.691371130606e+005 2.707365047758e+005 2.753224852546e+005 2.785028014104e+005 2.789295082957e+005 2.822581422895e+005 2.852519657158e+005 2.859531146627e+005 2.900031399656e+005 2.903832173550e+005 2.936281586008e+005 2.973882804989e+005 2.985267405087e+005 2.990030587095e+005 3.011985481684e+005 3.055424139141e+005 3.065274251820e+005 3.070668530134e+005 3.109285902104e+005 3.111551817809e+005 3.151840920710e+005 3.160819818873e+005 3.185381046702e+005 3.190218283976e+005 3.218555233177e+005 3.251166245559e+005 3.260052745055e+005 3.263651300026e+005 3.290453318821e+005 3.322142968423e+005 3.330097580122e+005 3.332870527458e+005 3.356878111481e+005 3.382963914598e+005 3.383796983880e+005 3.419785525514e+005 3.427154581331e+005 3.446952459892e+005 3.452267155291e+005 3.484216913994e+005 3.490614169311e+005 3.511274708241e+005 3.516237935710e+005 3.547723004688e+005 3.553910762603e+005 3.575830625363e+005 3.579226384869e+005 3.609237574524e+005 3.614935425843e+005 3.617043391897e+005 3.650807071050e+005 3.671918853725e+005 3.676051936436e+005 3.696296051817e+005 3.695714661079e+005 3.719338226138e+005 3.719920066951e+005 3.740130312445e+005 3.761601415567e+005 3.762341774913e+005 3.782740257539e+005 3.801685924266e+005 3.804487199834e+005 3.823253332773e+005 3.832303114880e+005 3.859594018517e+005 3.857339168365e+005 3.857314708974e+005 3.857350884346e+005 3.857338120538e+005 3.857316912167e+005 3.857325328601e+005 3.857327654711e+005 3.857312689545e+005 3.857319375362e+005 3.857334613135e+005 3.857334453431e+005 3.857307369028e+005 3.857316262924e+005 0.000000000000e+000 3.782497967105e+005 0.000000000000e+000 0.000000000000e+000 5.181566652034e+004 1.352266450685e+005 1.795692939305e+005 3.612829970143e+005 2.087639535721e+005 3.490966007950e+005 3.385627391080e+005 3.262711921025e+005 3.061597075740e+005 2.906152499248e+005 2.747841750217e+005 2.555294694396e+005 2.351787066526e+005 3.698184764415e+005 3.161002509345e+005 2.208027134854e+005 2.238232073247e+005 2.452188123972e+005 2.658900679419e+005 2.822430609043e+005 2.985280865652e+005 0.000000000000e+000 0.000000000000e+000 1.020165586558e+005 2.985243842425e+005 2.824297655048e+005 2.657386822572e+005 2.448574641731e+005 1.579461709599e+005 1.941052750697e+005 3.554057993720e+005 3.447711165940e+005 3.329378437024e+005 1.940442050269e+005 1.581142057873e+005 1.032068542339e+005 0.000000000000e+000 0.000000000000e+000 3.330358378190e+005 3.446996661752e+005 3.553829826098e+005 0.000000000000e+000 0.000000000000e+000 3.191408460053e+005 3.114762825549e+005 3.738255396034e+005 3.650810685003e+005 0.000000000000e+000 3.804431847832e+005 0.000000000000e+000 3.804510036730e+005 3.735842753221e+005 3.651276883372e+005 3.220038560489e+005 3.106865616299e+005 0.000000000000e+000 2.351687199847e+005 0.000000000000e+000 2.555240469801e+005 2.747749795359e+005 2.906001273792e+005 3.057840841152e+005 2.088149937682e+005 5.016046091786e+004 1.343348663987e+005 1.795263948278e+005 3.491349162252e+005 3.386312869242e+005 2.097491244266e+005 1.796827007564e+005 1.351483491042e+005 5.072365292262e+004 2.906150067824e+005 2.747696026918e+005 2.555466054531e+005 0.000000000000e+000 2.351574341660e+005 0.000000000000e+000 3.263387477556e+005 3.385867256014e+005 3.491284221351e+005 3.612851205399e+005 0.000000000000e+000 0.000000000000e+000 3.762326887276e+005 3.609123438585e+005 3.023629557865e+005 3.285380146445e+005 0.000000000000e+000 3.823798140231e+005 3.698042075773e+005 3.782139376107e+005 3.698204398234e+005 3.161504537547e+005 3.216153888677e+005 3.111744582685e+005 3.740059691896e+005 3.650486936881e+005 3.160721989764e+005 0.000000000000e+000 9.297560815189e+004 0.000000000000e+000 1.551749196116e+005 0.000000000000e+000 1.901823472997e+005 2.441249235950e+005 2.791076107025e+005 2.945444323790e+005 2.626450196123e+005 3.547884742848e+005 3.332326716206e+005 3.447358061140e+005 2.244315934865e+005 3.161052200042e+005 0.000000000000e+000 3.832175224546e+005 0.000000000000e+000 3.832128069631e+005 2.395966984648e+005 2.597738963581e+005 2.791414761468e+005 2.940538363569e+005 2.019378586402e+005 2.279286713527e+005 2.166422367474e+005 1.690359567641e+005 3.292439531845e+005 1.168675836485e+005 3.425033875954e+005 0.000000000000e+000 3.519157509683e+005 0.000000000000e+000 0.000000000000e+000 0.000000000000e+000 0.000000000000e+000 0.000000000000e+000 1.176774067031e+005 8.684822309416e+004 1.691768854695e+005 1.517548310412e+005 3.518531591020e+005 1.906130948460e+005 2.019563899874e+005 3.424563439029e+005 3.454147570730e+005 2.940395617262e+005 2.791198527700e+005 2.596962731024e+005 2.855781861889e+005 2.668893988614e+005 2.435309381601e+005 2.481418734056e+005 3.333369590050e+005 2.166240285318e+005 2.276718707400e+005 0.000000000000e+000 3.577524364843e+005 0.000000000000e+000 3.453417287054e+005 8.886494453444e+004 3.334201385552e+005 1.511582544692e+005 3.013981869050e+005 2.857102594353e+005 2.670269773287e+005 2.513110977789e+005 1.907674285618e+005 3.697995172960e+005 0.000000000000e+000 0.000000000000e+000 3.105282817992e+005 3.245632439344e+005 3.648963119786e+005 2.167402865100e+005 2.668737766225e+005 2.480878525086e+005 2.855328203172e+005 3.013787875113e+005 3.577231563734e+005 3.425549847148e+005 0.000000000000e+000 3.292764463694e+005 0.000000000000e+000 1.183183162617e+005 2.018201539631e+005 1.652619329443e+005 3.575894533893e+005 0.000000000000e+000 0.000000000000e+000 3.146906762551e+005 3.739977984509e+005 0.000000000000e+000 2.164353346083e+005 2.053114186570e+005 1.726344937326e+005 3.288649763868e+005 1.232872018093e+005 3.419367858242e+005 2.860174288561e+005 2.691938585155e+005 2.520957031454e+005 0.000000000000e+000 3.579181438825e+005 0.000000000000e+000 3.673818051767e+005 3.016198945502e+005 0.000000000000e+000 0.000000000000e+000 0.000000000000e+000 2.988800444614e+005 3.323006823374e+005 3.069941248375e+005 3.252595916350e+005 3.801764301807e+005 3.616605120250e+005 3.761284956304e+005 3.718666942711e+005 3.616554556142e+005 2.382299337102e+005 2.596513469012e+005 2.785306655903e+005 2.936408001759e+005 5.472052907818e+003 3.516331749763e+005 0.000000000000e+000 2.281505606040e+005 1.871281604960e+005 8.813349089827e+003 1.448131958804e+005 0.000000000000e+000 7.747349246514e+004 2.387839887413e+005 2.596685346999e+005 2.784687481030e+005 2.935863997303e+005 3.515678226680e+005 3.356598883066e+005 3.484362699885e+005 3.484352586643e+005 7.666036366197e+004 3.352399414671e+005 1.448289031226e+005 1.870413027595e+005 2.281266821099e+005 0.000000000000e+000 0.000000000000e+000 3.832149854341e+005 3.832213462944e+005 0.000000000000e+000 3.797358582555e+005 0.000000000000e+000 0.000000000000e+000 3.783145756118e+005 0.000000000000e+000 3.761455833189e+005 3.797474114611e+005 3.254470617208e+005 3.064040141424e+005 3.611001230741e+005 3.760531429370e+005 3.260576437815e+005 3.674920789384e+005 3.676342980380e+005 3.064175523961e+005 3.717625998809e+005 3.215603080984e+005 3.148260100568e+005 3.719232045926e+005 3.422601154413e+005 2.015075635924e+005 1.684550510874e+005 1.204795881528e+005 0.000000000000e+000 0.000000000000e+000 2.168730266227e+005 3.016465809548e+005 2.853958063320e+005 2.696641351711e+005 2.517497455744e+005 3.189485296886e+005 3.675702392957e+005 3.117278292929e+005 3.185241274699e+005 0.000000000000e+000 0.000000000000e+000 3.574713406473e+005 3.316750865473e+005 3.783449504179e+005 3.804008213512e+005 0.000000000000e+000 3.718194672528e+005 2.352938630097e+005 2.585234443918e+005 2.753738102562e+005 2.904189877506e+005 2.091617102161e+005 2.095588906770e+005 2.316166973890e+005 1.749519853864e+005 1.326449434104e+005 3.263950699312e+005 3.723216306695e+004 3.387407807367e+005 0.000000000000e+000 3.511486214807e+005 0.000000000000e+000 0.000000000000e+000 3.686093173209e+004 1.325802263648e+005 1.760847203343e+005 3.511645896101e+005 3.387501154317e+005 2.903922883151e+005 2.753850257173e+005 2.585343399586e+005 0.000000000000e+000 3.609051416192e+005 3.024635025856e+005 0.000000000000e+000 0.000000000000e+000 0.000000000000e+000 3.581211953650e+005 3.617594188657e+005 3.761315613149e+005 3.151190541039e+005 0.000000000000e+000 0.000000000000e+000 1.082783616077e+005 1.615699489632e+005 1.982909036848e+005 3.554694834005e+005 3.426468433680e+005 3.325683153661e+005 2.452658398321e+005 2.824408729468e+005 2.989503491389e+005 2.665050169496e+005 2.204695309023e+005 0.000000000000e+000 0.000000000000e+000 0.000000000000e+000 0.000000000000e+000 1.356558023057e+005 1.794159567088e+005 3.386584457742e+005 2.904480460056e+005 2.744679277852e+005 2.553250677044e+005 3.826006274078e+005 3.185955624407e+005 2.094920699448e+005 2.091791944395e+005 3.058014275972e+005 0.000000000000e+000 3.858018046063e+005 3.288735852384e+005 3.013711297936e+005 1.941579842786e+005 1.581935197741e+005 1.032618859521e+005 0.000000000000e+000 0.000000000000e+000 3.329831724771e+005 3.446813767159e+005 3.553943218346e+005 2.658869258859e+005 2.452267653484e+005 2.985265596570e+005 2.823202081556e+005 0.000000000000e+000 0.000000000000e+000 2.823189691439e+005 2.658706031848e+005 1.032119226771e+005 2.452296056719e+005 1.581445894596e+005 1.940804160018e+005 3.447052822566e+005 2.207711560596e+005 2.208292724411e+005 3.673591767585e+005 3.224577155640e+005 3.695789070834e+005 2.993431758251e+005 3.159084177037e+005 0.000000000000e+000 0.000000000000e+000 3.109382578904e+005 3.074511172054e+005 3.155388127528e+005 2.049421635588e+005 2.357742629837e+005 2.317320867163e+005 2.122814973306e+005 2.518497940850e+005 2.703194950756e+005 2.895898903310e+005 1.823407937481e+005 3.488567814468e+005 3.379615848139e+005 0.000000000000e+000 6.854678672817e+004 1.415186166214e+005 0.000000000000e+000 3.488543952505e+005 6.860718136851e+004 3.379584678688e+005 2.895901600565e+005 2.702990685243e+005 2.522333994405e+005 1.415243030256e+005 1.823460184795e+005 3.826956630066e+005 3.760072105184e+005 0.000000000000e+000 3.826883163595e+005 2.351299566500e+005 2.352224258021e+005 3.491393415952e+005 3.491439702265e+005 4.968866780465e+004 5.016678979172e+004 0.000000000000e+000 3.717222486590e+005 3.782467403520e+005 3.608883736167e+005 3.698312548495e+005 0.000000000000e+000 3.858050557821e+005 0.000000000000e+000 3.858029793058e+005 3.738456808688e+005 0.000000000000e+000 0.000000000000e+000 1.797155700751e+005 1.351737798936e+005 3.385823263285e+005 2.554157030846e+005 2.906533048372e+005 2.748243591795e+005 0.000000000000e+000 3.651860009065e+005 3.651439012126e+005 3.761465920911e+005 3.067916061793e+005 3.256055724294e+005 3.761668192478e+005 3.615018975571e+005 3.552918895675e+005 3.217068210765e+005 3.646359329788e+005 0.000000000000e+000 0.000000000000e+000 3.246355114901e+005 3.072007546488e+005 0.000000000000e+000 3.265066888113e+005 3.070601690587e+005 3.110150404322e+005 0.000000000000e+000 3.577484981753e+005 0.000000000000e+000 2.860135075362e+005 2.692082315777e+005 2.520901790649e+005 2.132279570378e+005 3.424826401459e+005 1.169357855872e+005 3.316062866663e+005 1.690942347660e+005 2.054178867608e+005 0.000000000000e+000 3.676226987163e+005 3.118158678707e+005 3.183869971718e+005 3.263533623228e+005 3.719563892320e+005 0.000000000000e+000 3.858063285014e+005 0.000000000000e+000 3.859463904753e+005 3.783830658221e+005 3.612640401225e+005 3.161964354888e+005 3.216909083223e+005 0.000000000000e+000 3.332336826578e+005 2.981351010869e+005 3.651547499028e+005 3.067202929505e+005 3.696914998473e+005 1.906670243891e+005 1.506346768669e+005 8.777074863367e+004 3.334713820024e+005 3.454150249363e+005 7.572519182286e+004 0.000000000000e+000 1.447148988369e+005 1.097587725016e+004 1.869229012006e+005 3.484717486781e+005 3.352774716671e+005 3.510708878147e+005 2.935440911725e+005 2.595578170216e+005 2.758333115215e+005 2.389774121276e+005 0.000000000000e+000 0.000000000000e+000 3.518758735212e+005 2.277682752231e+005 2.941275774318e+005 2.792255630470e+005 2.598422060397e+005 2.435571413121e+005 2.282184376534e+005 2.208044188469e+005 2.452193174289e+005 2.823214833697e+005 2.659005885415e+005 2.985300878256e+005 0.000000000000e+000 0.000000000000e+000 1.031706882604e+005 1.941021224627e+005 1.581080451661e+005 3.553870734026e+005 3.447047257118e+005 3.330109045480e+005 3.256621421218e+005 3.616435112904e+005 0.000000000000e+000 3.783767884855e+005 2.283609202408e+005 2.388439397769e+005 2.594570296452e+005 2.782526974691e+005 2.934311869404e+005 1.634678428260e+004 0.000000000000e+000 3.509726474685e+005 7.403773017308e+004 1.445808239411e+005 1.867756212420e+005 3.486643910080e+005 3.353217861793e+005 3.157656712650e+005 0.000000000000e+000 3.186588489391e+005 0.000000000000e+000 2.239582730376e+005 2.207011323519e+005 2.450158545024e+005 2.655712900178e+005 2.820851260351e+005 2.982091931013e+005 0.000000000000e+000 0.000000000000e+000 1.045682221122e+005 1.619440282696e+005 1.936548509989e+005 3.445944721938e+005 1.942247023697e+005 2.821938317430e+005 2.635306751562e+005 2.450682145924e+005 1.582420798808e+005 1.033058796680e+005 3.329482633340e+005 0.000000000000e+000 3.446593013332e+005 0.000000000000e+000 3.553912876468e+005 3.698187552864e+005 0.000000000000e+000 3.549973876518e+005 0.000000000000e+000 2.791569143372e+005 2.441900782496e+005 2.625279625331e+005 2.945809908099e+005 3.446277727142e+005 9.408123930683e+004 3.329375098923e+005 1.539622736201e+005 1.904121183529e+005 2.242182946859e+005 3.782853384736e+005 0.000000000000e+000 3.858064561371e+005 0.000000000000e+000 0.000000000000e+000 0.000000000000e+000 3.188175256752e+005 3.119750315620e+005 3.653022274564e+005 3.553284214987e+005 0.000000000000e+000 3.778929695222e+005 0.000000000000e+000 0.000000000000e+000 3.614160564818e+005 2.054891335279e+005 1.727705330575e+005 3.289640760203e+005 1.268012823558e+005 3.418776003480e+005 2.519998816691e+005 2.692010264802e+005 2.859431907527e+005 2.132426982545e+005 0.000000000000e+000 3.580053096844e+005 0.000000000000e+000 3.263684634145e+005 3.058700097350e+005 3.190679750475e+005 3.739693052676e+005 3.761282848143e+005 0.000000000000e+000 3.824084770592e+005 0.000000000000e+000 3.824088081525e+005 2.980846193595e+005 3.332167119532e+005 3.013819126959e+005 3.718505263943e+005 0.000000000000e+000 3.826094764068e+005 3.220643546869e+005 3.114025276310e+005 3.191707827199e+005 3.653249466148e+005 3.738671966790e+005 3.696655102590e+005 3.293802254758e+005 3.738731709405e+005 3.676666183503e+005 3.189640425715e+005 3.762421269858e+005 3.740558118845e+005 3.156573801926e+005 3.250324285000e+005 3.112242034467e+005 3.217812499143e+005 0.000000000000e+000 3.801744752421e+005 3.578680038871e+005 2.204044303479e+005 2.123510084910e+005 0.000000000000e+000 0.000000000000e+000 0.000000000000e+000 0.000000000000e+000 1.233825541393e+005 1.727152517492e+005 3.418939661595e+005 1.977145320220e+005 2.048795247209e+005 2.989562798877e+005 3.015055290414e+005 2.851788783064e+005 2.895253743234e+005 2.702247813119e+005 2.660820663538e+005 2.484819890743e+005 2.525463579946e+005 3.804353274177e+005 0.000000000000e+000 0.000000000000e+000 0.000000000000e+000 0.000000000000e+000 3.827215814418e+005 0.000000000000e+000 2.394189090806e+005 2.596343076035e+005 2.790292442980e+005 2.933640291266e+005 2.279365186732e+005 2.161846586301e+005 2.020785417238e+005 1.692543719708e+005 3.291459722906e+005 1.177370575961e+005 3.424205873653e+005 0.000000000000e+000 3.518442005960e+005 0.000000000000e+000 0.000000000000e+000 0.000000000000e+000 0.000000000000e+000 1.177586728761e+005 1.69253