<?xml version="1.0"?>
<VTKFile type="UnstructuredGrid" version="0.1" byte_order="LittleEndian">
  <UnstructuredGrid>
    <Piece NumberOfPoints="206" NumberOfCells="326">
      <Points>
        <DataArray type="Float64" NumberOfComponents="3" format="ascii">
          1.897435897436e+002 0.000000000000e+000 0.000000000000e+000
          1.931791020913e+002 4.394475469951e+000 0.000000000000e+000
          1.948717948718e+002 0.000000000000e+000 0.000000000000e+000
          5.880459463038e+000 1.099154902703e+001 0.000000000000e+000
          0.000000000000e+000 6.666666666655e+000 0.000000000000e+000
          0.000000000000e+000 1.333333333332e+001 0.000000000000e+000
          2.022497621136e+001 4.353446977749e+000 0.000000000000e+000
          2.051282051291e+001 0.000000000000e+000 0.000000000000e+000
          1.538461538468e+001 0.000000000000e+000 0.000000000000e+000
          1.711973192023e+001 9.822643375701e+000 0.000000000000e+000
          2.235754985755e+001 9.965277777778e+000 0.000000000000e+000
          1.342973104686e+001 5.024912353671e+000 0.000000000000e+000
          2.051282051273e+001 2.000000000000e+001 0.000000000000e+000
          1.990430525733e+001 1.515950912857e+001 0.000000000000e+000
          1.538461538455e+001 2.000000000000e+001 0.000000000000e+000
          1.275415082211e+002 1.500000000000e+001 0.000000000000e+000
          1.305226984145e+002 1.000000000000e+001 0.000000000000e+000
          1.266144349478e+002 1.000000000000e+001 0.000000000000e+000
          1.320283396971e+002 1.500000000000e+001 0.000000000000e+000
          1.275415082214e+002 5.000000000000e+000 0.000000000000e+000
          1.320283396974e+002 5.000000000000e+000 0.000000000000e+000
          2.662324775127e+001 5.694754464286e+000 0.000000000000e+000
          2.617521367521e+001 1.000000000000e+001 0.000000000000e+000
          2.532894973587e+001 1.397776144540e+001 0.000000000000e+000
          1.184289081109e+002 1.400000000000e+001 0.000000000000e+000
          1.217390520306e+002 1.000000000000e+001 0.000000000000e+000
          1.150696490874e+002 1.000602607727e+001 0.000000000000e+000
          1.222794923522e+002 1.500000000000e+001 0.000000000000e+000
          1.184289081111e+002 6.000000000000e+000 0.000000000000e+000
          1.222794923525e+002 5.000000000000e+000 0.000000000000e+000
          1.647570346228e+002 1.499982920203e+001 0.000000000000e+000
          1.610766879766e+002 9.999898274740e+000 0.000000000000e+000
          1.584898332400e+002 1.571424274568e+001 0.000000000000e+000
          7.586604251621e+001 5.621173932933e+000 0.000000000000e+000
          8.021655268624e+001 1.019499276048e+001 0.000000000000e+000
          8.189146271784e+001 4.117034117006e+000 0.000000000000e+000
          7.588302713352e+001 1.447660101075e+001 0.000000000000e+000
          8.201035504047e+001 1.604351572524e+001 0.000000000000e+000
          1.647575611852e+002 4.999583052019e+000 0.000000000000e+000
          1.589293847822e+002 4.146609780286e+000 0.000000000000e+000
          1.641025641024e+002 2.000000000000e+001 0.000000000000e+000
          1.692307692306e+002 2.000000000000e+001 0.000000000000e+000
          1.660230030600e+002 1.000000000000e+001 0.000000000000e+000
          1.697917692894e+002 1.499909577546e+001 0.000000000000e+000
          1.641025641028e+002 0.000000000000e+000 0.000000000000e+000
          1.692307692309e+002 0.000000000000e+000 0.000000000000e+000
          1.697948641857e+002 4.997649016204e+000 0.000000000000e+000
          1.743589743588e+002 2.000000000000e+001 0.000000000000e+000
          1.710911944708e+002 1.000000000000e+001 0.000000000000e+000
          1.749412615107e+002 1.499457465278e+001 0.000000000000e+000
          1.743589743591e+002 0.000000000000e+000 0.000000000000e+000
          1.749598308881e+002 4.985894097222e+000 0.000000000000e+000
          1.794871794871e+002 2.000000000000e+001 0.000000000000e+000
          1.769615825547e+002 9.964192708333e+000 0.000000000000e+000
          1.806150388551e+002 1.469347696151e+001 0.000000000000e+000
          1.794871794873e+002 0.000000000000e+000 0.000000000000e+000
          1.803838168879e+002 4.953657234265e+000 0.000000000000e+000
          1.846153846153e+002 2.000000000000e+001 0.000000000000e+000
          1.846153846155e+002 0.000000000000e+000 0.000000000000e+000
          1.858160403609e+002 4.891281862002e+000 0.000000000000e+000
          1.487179487182e+002 0.000000000000e+000 0.000000000000e+000
          1.505413635482e+002 5.088785165962e+000 0.000000000000e+000
          1.538461538464e+002 0.000000000000e+000 0.000000000000e+000
          5.128205128183e+001 2.000000000000e+001 0.000000000000e+000
          4.937524205543e+001 1.478507223003e+001 0.000000000000e+000
          4.615384615364e+001 2.000000000000e+001 0.000000000000e+000
          4.335527308620e+001 1.560308717176e+001 0.000000000000e+000
          4.102564102546e+001 2.000000000000e+001 0.000000000000e+000
          4.429011235569e+001 1.011123788964e+001 0.000000000000e+000
          3.589743589728e+001 2.000000000000e+001 0.000000000000e+000
          3.424338337179e+001 1.480928422469e+001 0.000000000000e+000
          3.076923076909e+001 2.000000000000e+001 0.000000000000e+000
          3.005689385761e+001 1.060364436599e+001 0.000000000000e+000
          6.153846153820e+001 2.000000000000e+001 0.000000000000e+000
          5.861144803786e+001 1.567337793620e+001 0.000000000000e+000
          5.641025641001e+001 2.000000000000e+001 0.000000000000e+000
          6.364098538444e+001 1.500000000000e+001 0.000000000000e+000
          5.989457932650e+001 1.030421617259e+001 0.000000000000e+000
          6.666666666639e+001 2.000000000000e+001 0.000000000000e+000
          6.863961921157e+001 1.499549437831e+001 0.000000000000e+000
          6.567188823475e+001 9.930555555556e+000 0.000000000000e+000
          8.717948717914e+001 2.000000000000e+001 0.000000000000e+000
          8.205128205096e+001 2.000000000000e+001 0.000000000000e+000
          8.825660559227e+001 1.457690124438e+001 0.000000000000e+000
          9.230769230733e+001 2.000000000000e+001 0.000000000000e+000
          8.616129659787e+001 8.733480538898e+000 0.000000000000e+000
          9.150074733547e+001 1.030748155382e+001 0.000000000000e+000
          1.384615384618e+002 0.000000000000e+000 0.000000000000e+000
          1.415932379237e+002 4.335026874129e+000 0.000000000000e+000
          1.435897435900e+002 0.000000000000e+000 0.000000000000e+000
          1.370080938287e+002 5.069444256391e+000 0.000000000000e+000
          1.404454238813e+002 9.718036725159e+000 0.000000000000e+000
          1.333333333336e+002 0.000000000000e+000 0.000000000000e+000
          1.076923076927e+002 0.000000000000e+000 0.000000000000e+000
          1.108991862601e+002 4.857696974887e+000 0.000000000000e+000
          1.128205128209e+002 0.000000000000e+000 0.000000000000e+000
          1.230769230773e+002 0.000000000000e+000 0.000000000000e+000
          1.282051282055e+002 0.000000000000e+000 0.000000000000e+000
          1.421648412768e+002 1.518915604417e+001 0.000000000000e+000
          1.384615384612e+002 2.000000000000e+001 0.000000000000e+000
          1.435897435894e+002 2.000000000000e+001 0.000000000000e+000
          1.370080938284e+002 1.506944425639e+001 0.000000000000e+000
          1.333333333330e+002 2.000000000000e+001 0.000000000000e+000
          1.230769230766e+002 2.000000000000e+001 0.000000000000e+000
          1.282051282048e+002 2.000000000000e+001 0.000000000000e+000
          1.106262295343e+002 1.449114286029e+001 0.000000000000e+000
          1.076923076919e+002 2.000000000000e+001 0.000000000000e+000
          1.128205128202e+002 2.000000000000e+001 0.000000000000e+000
          1.060408540078e+002 1.575486111111e+001 0.000000000000e+000
          5.803874767782e+001 4.824157678094e+000 0.000000000000e+000
          6.153846153872e+001 0.000000000000e+000 0.000000000000e+000
          5.641025641050e+001 0.000000000000e+000 0.000000000000e+000
          6.364098538470e+001 5.000000000000e+000 0.000000000000e+000
          6.666666666694e+001 0.000000000000e+000 0.000000000000e+000
          6.863961921185e+001 4.974991732804e+000 0.000000000000e+000
          9.032615013277e+001 4.937074209742e+000 0.000000000000e+000
          9.230769230805e+001 0.000000000000e+000 0.000000000000e+000
          8.717948717983e+001 0.000000000000e+000 0.000000000000e+000
          1.524809577360e+002 1.505950683102e+001 0.000000000000e+000
          1.487179487177e+002 2.000000000000e+001 0.000000000000e+000
          1.538461538459e+002 2.000000000000e+001 0.000000000000e+000
          1.472187406962e+002 1.523528621385e+001 0.000000000000e+000
          4.767577943456e+001 4.990079365079e+000 0.000000000000e+000
          5.128205128227e+001 0.000000000000e+000 0.000000000000e+000
          4.615384615405e+001 0.000000000000e+000 0.000000000000e+000
          5.289188460113e+001 4.768994659147e+000 0.000000000000e+000
          4.250523169876e+001 4.799709939732e+000 0.000000000000e+000
          4.102564102582e+001 0.000000000000e+000 0.000000000000e+000
          3.076923076937e+001 0.000000000000e+000 0.000000000000e+000
          2.564102564114e+001 0.000000000000e+000 0.000000000000e+000
          3.231012230340e+001 5.174437830688e+000 0.000000000000e+000
          3.589743589759e+001 0.000000000000e+000 0.000000000000e+000
          3.747197445908e+001 4.807502868680e+000 0.000000000000e+000
          1.589743589741e+002 2.000000000000e+001 0.000000000000e+000
          1.551353134763e+002 9.374350718944e+000 0.000000000000e+000
          7.179487179516e+001 0.000000000000e+000 0.000000000000e+000
          7.179487179458e+001 2.000000000000e+001 0.000000000000e+000
          1.179487179484e+002 2.000000000000e+001 0.000000000000e+000
          1.179487179491e+002 0.000000000000e+000 0.000000000000e+000
[...]
      <PointData Scalars="Capillary_Pressure">
        <DataArray type="Float64" Name="Capillary_Pressure" format="ascii">
          0.000000000000e+000 0.000000000000e+000 0.000000000000e+000 3.799924298793e+005 3.856884635944e+005 3.856526523426e+005 3.670116961565e+005 3.669891108666e+005 3.716903745009e+005 3.706154432797e+005 3.646321335824e+005 3.737529140335e+005 3.670296119293e+005 3.671005922210e+005 3.717402191112e+005 2.105483900797e+005 2.008550687801e+005 2.106125367834e+005 1.956257309474e+005 2.105459376040e+005 1.956181423503e+005 3.620489286394e+005 3.617025616531e+005 3.623819369137e+005 2.307328781919e+005 2.233439247751e+005 2.368750637178e+005 2.235541671250e+005 2.307395815365e+005 2.235552881921e+005 0.000000000000e+000 1.181795020407e+004 5.822364196637e+004 3.028833571087e+005 2.967525879479e+005 2.961818132278e+005 3.028801163246e+005 2.961320379669e+005 0.000000000000e+000 5.130724245365e+004 0.000000000000e+000 0.000000000000e+000 0.000000000000e+000 0.000000000000e+000 0.000000000000e+000 0.000000000000e+000 0.000000000000e+000 0.000000000000e+000 0.000000000000e+000 0.000000000000e+000 0.000000000000e+000 0.000000000000e+000 0.000000000000e+000 0.000000000000e+000 0.000000000000e+000 0.000000000000e+000 0.000000000000e+000 0.000000000000e+000 0.000000000000e+000 0.000000000000e+000 1.335368257859e+005 1.229397799904e+005 1.064543344269e+005 3.356243082347e+005 3.362783905026e+005 3.401766091780e+005 3.429051245855e+005 3.454969276502e+005 3.425820029563e+005 3.525543531550e+005 3.529735566778e+005 3.577655712813e+005 3.578089633498e+005 3.222036698574e+005 3.253853342816e+005 3.281121790534e+005 3.193101546274e+005 3.250311211084e+005 3.158424753123e+005 3.131668817294e+005 3.165733410996e+005 2.874302754247e+005 2.961060288240e+005 2.850299505837e+005 2.808783216403e+005 2.884187554401e+005 2.813290364612e+005 1.755700048693e+005 1.647898685828e+005 1.563697077459e+005 1.806649005112e+005 1.683554506638e+005 1.920027259211e+005 2.518701282062e+005 2.476686490574e+005 2.420514089257e+005 2.199486167579e+005 2.068748567759e+005 1.651306137286e+005 1.755871470868e+005 1.563717392589e+005 1.806856199336e+005 1.920119783659e+005 2.199485906906e+005 2.068783753420e+005 2.470715005170e+005 2.518721281214e+005 2.420566600578e+005 2.567227777049e+005 3.276689776846e+005 3.221760066969e+005 3.280962005583e+005 3.192771904894e+005 3.158235663645e+005 3.131535199586e+005 2.817796638853e+005 2.809032855458e+005 2.881019114162e+005 1.144117753256e+005 1.336312148360e+005 1.020855434737e+005 1.412536064476e+005 3.396642107353e+005 3.355807389475e+005 3.401514677442e+005 3.322481401890e+005 3.445049288704e+005 3.454834127699e+005 3.576837376375e+005 3.622718653110e+005 3.553265516209e+005 3.524845499376e+005 3.493269633042e+005 4.945711260635e+004 9.648408874906e+004 3.087607188976e+005 3.087695414267e+005 2.311795735511e+005 2.311842633069e+005 3.776263334321e+005 3.789397624136e+005 0.000000000000e+000 0.000000000000e+000 0.000000000000e+000 2.369465365188e+005 2.369190047586e+005 0.000000000000e+000 2.764829855873e+005 2.758531040757e+005 2.724675699378e+005 2.693928771033e+005 2.620253719423e+005 2.724704254708e+005 2.688429595813e+005 2.620292385238e+005 2.961250666393e+005 3.022482429477e+005 3.022501585891e+005 4.887883402392e+004 0.000000000000e+000 3.811141710777e+005 0.000000000000e+000 0.000000000000e+000 2.620692908627e+005 2.652961346596e+005 3.353545747888e+005 2.729208279329e+005 1.879999094884e+005 2.569407733577e+005 1.291060937848e+005 3.522132596082e+005 2.660308995424e+005 2.763620248988e+005 2.562867079546e+005 0.000000000000e+000 0.000000000000e+000 3.087353340752e+005 0.000000000000e+000 3.086516654250e+005 3.086440619077e+005 3.727762020245e+005 2.883426038784e+005 2.482872042740e+005 3.749972967543e+005 3.769810982265e+005 1.479741427552e+005 3.487325772864e+005 3.315872670981e+005 3.484600393179e+005 1.487666476403e+005 3.312919314088e+005 3.644600876610e+005 3.622917723142e+005 1.509825190304e+005 3.293732297898e+005 3.467034476192e+005 2.916867190614e+005 3.769324396768e+005 3.811173626136e+005 3.811555459420e+005 3.028440561605e+005 9.889011335445e+004 3.580563205508e+005 3.856498124375e+005 3.856274075601e+005 0.000000000000e+000 
        </DataArray>
        <DataArray type="Float64" Name="Gas_Pressure" format="ascii">
          1.000000000000e+006 1.000000000000e+006 1.000000000000e+006 1.000000000000e+006 1.000000000000e+006 1.000000000000e+006 1.000000000000e+006 1.000000000000e+006 1.000000000000e+006 1.000000000000e+006 1.000000000000e+006 1.000000000000e+006 1.000000000000e+006 1.000000000000e+006 1.000000000000e+006 1.000000000000e+006 1.000000000000e+006 1.000000000000e+006 1.000000000000e+006 1.000000000000e+006 1.000000000000e+006 1.000000000000e+006 1.000000000000e+006 1.000000000000e+006 1.000000000000e+006 1.000000000000e+006 1.000000000000e+006 1.000000000000e+006 1.000000000000e+006 1.000000000000e+006 1.000000000000e+006 1.000000000000e+006 1.000000000000e+006 1.000000000000e+006 1.000000000000e+006 1.000000000000e+006 1.000000000000e+006 1.000000000000e+006 1.000000000000e+006 1.000000000000e+006 1.000000000000e+006 1.000000000000e+006 1.000000000000e+006 1.000000000000e+006 1.000000000000e+006 1.000000000000e+006 1.000000000000e+006 1.000000000000e+006 1.000000000000e+006 1.000000000000e+006 1.000000000000e+006 1.000000000000e+006 1.000000000000e+006 1.000000000000e+006 1.000000000000e+006 1.000000000000e+006 1.000000000000e+006 1.000000000000e+006 1.000000000000e+006 1.000000000000e+006 1.000000000000e+006 1.000000000000e+006 1.000000000000e+006 1.000000000000e+006 1.000000000000e+006 1.000000000000e+006 1.000000000000e+006 1.000000000000e+006 1.000000000000e+006 1.000000000000e+006 1.000000000000e+006 1.000000000000e+006 1.000000000000e+006 1.000000000000e+006 1.000000000000e+006 1.000000000000e+006 1.000000000000e+006 1.000000000000e+006 1.000000000000e+006 1.000000000000e+006 1.000000000000e+006 1.000000000000e+006 1.000000000000e+006 1.000000000000e+006 1.000000000000e+006 1.000000000000e+006 1.000000000000e+006 1.000000000000e+006 1.000000000000e+006 1.000000000000e+006 1.000000000000e+006 1.000000000000e+006 1.000000000000e+006 1.000000000000e+006 1.000000000000e+006 1.000000000000e+006 1.000000000000e+006 1.000000000000e+006 1.000000000000e+006 1.000000000000e+006 1.000000000000e+006 1.000000000000e+006 1.000000000000e+006 1.000000000000e+006 1.000000000000e+006 1.000000000000e+006 1.000000000000e+006 1.000000000000e+006 1.000000000000e+006 1.000000000000e+006 1.000000000000e+006 1.000000000000e+006 1.000000000000e+006 1.000000000000e+006 1.000000000000e+006 1.000000000000e+006 1.000000000000e+006 1.000000000000e+006 1.000000000000e+006 1.000000000000e+006 1.000000000000e+006 1.000000000000e+006 1.000000000000e+006 1.000000000000e+006 1.000000000000e+006 1.000000000000e+006 1.000000000000e+006 1.000000000000e+006 1.000000000000e+006 1.000000000000e+006 1.000000000000e+006 1.000000000000e+006 1.000000000000e+006 1.000000000000e+006 1.000000000000e+006 1.000000000000e+006 1.000000000000e+006 1.000000000000e+006 1.000000000000e+006 1.000000000000e+006 1.000000000000e+006 1.000000000000e+006 1.000000000000e+006 1.000000000000e+006 1.000000000000e+006 1.000000000000e+006 1.000000000000e+006 1.000000000000e+006 1.000000000000e+006 1.000000000000e+006 1.000000000000e+006 1.000000000000e+006 1.000000000000e+006 1.000000000000e+006 1.000000000000e+006 1.000000000000e+006 1.000000000000e+006 1.000000000000e+006 1.000000000000e+006 1.000000000000e+006 1.000000000000e+006 1.000000000000e+006 1.000000000000e+006 1.000000000000e+006 1.000000000000e+006 1.000000000000e+006 1.000000000000e+006 1.000000000000e+006 1.000000000000e+006 1.000000000000e+006 1.000000000000e+006 1.000000000000e+006 1.000000000000e+006 1.000000000000e+006 1.000000000000e+006 1.000000000000e+006 1.000000000000e+006 1.000000000000e+006 1.000000000000e+006 1.000000000000e+006 1.000000000000e+006 1.000000000000e+006 1.000000000000e+006 1.000000000000e+006 1.000000000000e+006 1.000000000000e+006 1.000000000000e+006 1.000000000000e+006 1.000000000000e+006 1.000000000000e+006 1.000000000000e+006 1.000000000000e+006 1.000000000000e+006 1.000000000000e+006 1.000000000000e+006 1.000000000000e+006 1.000000000000e+006 1.000000000000e+006 1.000000000000e+006 1.000000000000e+006 1.000000000000e+006 1.000000000000e+006 1.000000000000e+006 1.000000000000e+006 1.000000000000e+006 1.000000000000e+006 
        </DataArray>
        <DataArray type="Float64" Name="LIQUID_PRESSURE" format="ascii">
          1.000034213373e+006 1.000022741282e+006 1.000017100298e+006 1.000347548236e+006 1.000346092593e+006 1.000346390970e+006 1.000332884243e+006 1.000329874160e+006 1.000335680149e+006 1.000328364197e+006 1.000334391884e+006 1.000334639490e+006 1.000329463120e+006 1.000335395964e+006 1.000335159119e+006 1.000215214211e+006 1.000215516961e+006 1.000222933670e+006 1.000215566732e+006 1.000215204937e+006 1.000215556761e+006 1.000314653713e+006 1.000322918796e+006 1.000325227735e+006 1.000232121178e+006 1.000227278873e+006 1.000240602633e+006 1.000222036181e+006 1.000232078674e+006 1.000222018856e+006 1.000113433629e+006 1.000152132134e+006 1.000163121450e+006 1.000286692244e+006 1.000282157039e+006 1.000269086791e+006 1.000286557197e+006 1.000268317749e+006 1.000117547824e+006 1.000161316309e+006 1.000116485955e+006 1.000100897616e+006 1.000116547589e+006 1.000099603269e+006 1.000119520790e+006 1.000102836659e+006 1.000101186266e+006 1.000084755757e+006 1.000096966772e+006 1.000083127257e+006 1.000085725936e+006 1.000083736702e+006 1.000068063989e+006 1.000076858539e+006 1.000064456840e+006 1.000068520515e+006 1.000065493180e+006 1.000051138547e+006 1.000051346811e+006 1.000047313648e+006 1.000186439825e+006 1.000183254129e+006 1.000173092535e+006 1.000296124168e+006 1.000310673950e+006 1.000311233763e+006 1.000316916061e+006 1.000318489077e+006 1.000309936583e+006 1.000307917336e+006 1.000321701067e+006 1.000312672870e+006 1.000319895176e+006 1.000296533949e+006 1.000302356317e+006 1.000303820216e+006 1.000296581156e+006 1.000291890385e+006 1.000290953256e+006 1.000289943213e+006 1.000295852024e+006 1.000269044661e+006 1.000267947741e+006 1.000272185835e+006 1.000255772286e+006 1.000273404077e+006 1.000261111464e+006 1.000205183315e+006 1.000199164849e+006 1.000196631614e+006 1.000207103423e+006 1.000202364346e+006 1.000213109952e+006 1.000249162206e+006 1.000237045179e+006 1.000241539677e+006 1.000226260320e+006 1.000219532713e+006 1.000194331384e+006 1.000205192548e+006 1.000196600981e+006 1.000207129161e+006 1.000213120263e+006 1.000226277763e+006 1.000219543968e+006 1.000241886543e+006 1.000249120122e+006 1.000241505531e+006 1.000243624323e+006 1.000290462218e+006 1.000296726091e+006 1.000303954272e+006 1.000296827179e+006 1.000291081522e+006 1.000290034120e+006 1.000270019110e+006 1.000255611100e+006 1.000265180654e+006 1.000176676997e+006 1.000186371049e+006 1.000175046763e+006 1.000188919017e+006 1.000299632183e+006 1.000296470740e+006 1.000311486277e+006 1.000307210605e+006 1.000311740560e+006 1.000318641377e+006 1.000313458741e+006 1.000322982672e+006 1.000319858298e+006 1.000308596310e+006 1.000321363653e+006 1.000161492429e+006 1.000170301450e+006 1.000288529567e+006 1.000288471892e+006 1.000234948934e+006 1.000234910228e+006 1.000326297198e+006 1.000339814033e+006 1.000056127618e+006 1.000038287924e+006 1.000022286534e+006 1.000239905411e+006 1.000240045328e+006 1.000042720380e+006 1.000263336229e+006 1.000262342670e+006 1.000250553964e+006 1.000256591781e+006 1.000252317278e+006 1.000250525397e+006 1.000256388381e+006 1.000252247871e+006 1.000267929193e+006 1.000280332684e+006 1.000280319391e+006 1.000161354677e+006 1.000034121515e+006 1.000342938406e+006 1.000019367610e+006 1.000000000000e+006 1.000252194018e+006 1.000253679689e+006 1.000307028738e+006 1.000259148893e+006 1.000210544607e+006 1.000249480425e+006 1.000184070761e+006 1.000319411943e+006 1.000255391681e+006 1.000257456994e+006 1.000247883149e+006 1.000017068297e+006 1.000000000000e+006 1.000288169597e+006 1.000000000000e+006 1.000286293364e+006 1.000286339972e+006 1.000339127784e+006 1.000272091527e+006 1.000246851464e+006 1.000343544151e+006 1.000337115470e+006 1.000192931419e+006 1.000308812632e+006 1.000294603294e+006 1.000316957621e+006 1.000188007770e+006 1.000302783073e+006 1.000327937481e+006 1.000322771032e+006 1.000193204135e+006 1.000306610666e+006 1.000321566974e+006 1.000274944928e+006 1.000334116239e+006 1.000342106012e+006 1.000342390161e+006 1.000285944656e+006 1.000171761359e+006 1.000326586920e+006 1.000346429300e+006 1.000346628930e+006 1.000000000000e+006 
        </DataArray>
        <DataArray type="Float64" Name="MOLAR_FRACTION" format="ascii">
          2.111270833911e-005 1.437585753582e-005 1.105646867428e-005 1.092125295380e-004 1.089210008907e-004 1.089794026650e-004 1.068315014339e-004 1.062906795266e-004 1.072230104137e-004 1.059260689403e-004 1.071788848196e-004 1.069903857429e-004 1.062155485231e-004 1.072857023319e-004 1.071276077401e-004 9.201402242077e-005 9.251819343289e-005 9.380273114694e-005 9.275742462701e-005 9.201317583684e-005 9.275723265398e-005 1.036746745601e-004 1.051919792074e-004 1.055904413602e-004 9.484670130708e-005 9.415770742419e-005 9.640175821831e-005 9.295255290229e-005 9.483842479495e-005 9.294957381313e-005 7.009834628638e-005 7.742450167177e-005 8.102955404371e-005 1.016537152129e-004 1.011761202533e-004 9.861639145638e-005 1.016271234562e-004 9.846624175163e-005 7.008445014542e-005 8.052326613958e-005 7.142553725389e-005 6.134566805145e-005 6.764606279860e-005 6.023919926326e-005 7.138119495079e-005 6.132934747532e-005 6.022511457888e-005 5.128474756786e-005 5.769258610572e-005 5.014155345814e-005 5.127790034243e-005 5.010116414820e-005 4.122695927793e-005 4.617851531707e-005 3.901467646055e-005 4.122393277466e-005 3.946638733761e-005 3.116999658078e-005 3.116864625683e-005 2.881451338069e-005 8.726161441361e-005 8.658776769357e-005 8.401160744939e-005 1.014299887217e-004 1.041236274319e-004 1.040120358652e-004 1.049291684650e-004 1.050882956409e-004 1.036434247565e-004 1.028052986311e-004 1.053180078793e-004 1.034637196538e-004 1.047871331074e-004 1.022992805443e-004 1.032125842025e-004 1.033232540476e-004 1.024930381753e-004 1.012405347455e-004 1.016303909735e-004 1.016075589177e-004 1.025321722439e-004 9.918703163532e-005 9.839230508221e-005 9.998348569170e-005 9.691888993748e-005 9.999870120808e-005 9.798091146105e-005 9.099171179222e-005 8.981640418334e-005 8.941612849592e-005 9.128536944108e-005 9.053202663005e-005 9.231684192384e-005 9.736851381484e-005 9.500673949729e-005 9.630982058416e-005 9.410245283190e-005 9.319493014991e-005 8.856501793728e-005 9.099047816946e-005 8.942895157554e-005 9.128592609930e-005 9.231638340365e-005 9.410507595251e-005 9.319586854802e-005 9.609466192929e-005 9.736468690992e-005 9.630165326798e-005 9.589298016095e-005 1.008100712629e-004 1.023411571360e-004 1.033463674814e-004 1.025451175188e-004 1.016589496648e-004 1.016273213350e-004 9.976323990624e-005 9.688437713688e-005 9.836442429607e-005 8.488363590361e-005 8.722983457417e-005 8.465734204109e-005 8.778732804031e-005 1.018713280810e-004 1.015012846406e-004 1.040570893574e-004 1.037133820856e-004 1.038785916381e-004 1.051126704999e-004 1.036145569407e-004 1.051818208186e-004 1.048825222937e-004 1.029341500312e-004 1.054286593164e-004 8.036793709151e-005 8.329731944386e-005 1.016201162217e-004 1.016075669050e-004 9.546413275612e-005 9.545736472331e-005 1.054345945809e-004 1.078397586797e-004 3.402480235927e-005 2.352849502845e-005 1.411830277939e-005 9.624195166340e-005 9.627193665609e-005 2.616944737574e-005 9.875495873647e-005 9.859417626913e-005 9.638360328566e-005 9.783075582263e-005 9.741121935100e-005 9.637671953636e-005 9.782683404119e-005 9.739794894610e-005 9.838630088189e-005 1.004413066566e-004 1.004382675563e-004 8.034083652943e-005 2.111329837374e-005 1.083757157119e-004 1.240966382689e-005 1.000000000000e-006 9.737558847988e-005 9.748595512432e-005 1.034962503489e-004 9.813014205257e-005 9.185484238117e-005 9.712636898693e-005 8.669844152194e-005 1.049345932557e-004 9.779869380961e-005 9.755685415861e-005 9.682799739782e-005 1.105666295333e-005 1.000000000000e-006 1.015541392413e-004 1.000000000000e-006 1.011945440176e-004 1.012047674590e-004 1.078186053668e-004 9.974255471083e-005 9.709282863696e-005 1.085657945681e-004 1.073857208844e-004 8.869511800123e-005 1.031359487578e-004 1.013687278420e-004 1.046569164434e-004 8.734383098497e-005 1.029326898707e-004 1.060133971557e-004 1.051455270249e-004 8.867492261967e-005 1.037667545830e-004 1.055908766837e-004 1.000876106071e-004 1.068464679586e-004 1.082312455966e-004 1.082831403384e-004 1.015144345472e-004 8.354451933768e-005 1.059983472714e-004 1.089846444811e-004 1.090208237501e-004 1.000000000000e-006 
        </DataArray>
        <DataArray type="Float64" Name="SATURATION" format="ascii">