<?xml version="1.0"?>
<VTKFile type="UnstructuredGrid" version="0.1" byte_order="LittleEndian">
  <UnstructuredGrid>
    <Piece NumberOfPoints="2604" NumberOfCells="4910">
      <Points>
        <DataArray type="Float64" NumberOfComponents="3" format="ascii">
          0.000000000000e+000 0.000000000000e+000 0.000000000000e+000
          2.000000000000e+002 0.000000000000e+000 0.000000000000e+000
          2.000000000000e+002 2.000000000000e+001 0.000000000000e+000
          0.000000000000e+000 2.000000000000e+001 0.000000000000e+000
          1.492537313427e+000 0.000000000000e+000 0.000000000000e+000
          2.985074626854e+000 0.000000000000e+000 0.000000000000e+000
          4.477611940281e+000 0.000000000000e+000 0.000000000000e+000
          5.970149253708e+000 0.000000000000e+000 0.000000000000e+000
          7.462686567135e+000 0.000000000000e+000 0.000000000000e+000
          8.955223880561e+000 0.000000000000e+000 0.000000000000e+000
          1.044776119399e+001 0.000000000000e+000 0.000000000000e+000
          1.194029850741e+001 0.000000000000e+000 0.000000000000e+000
          1.343283582084e+001 0.000000000000e+000 0.000000000000e+000
          1.492537313427e+001 0.000000000000e+000 0.000000000000e+000
          1.641791044770e+001 0.000000000000e+000 0.000000000000e+000
          1.791044776112e+001 0.000000000000e+000 0.000000000000e+000
          1.940298507455e+001 0.000000000000e+000 0.000000000000e+000
          2.089552238798e+001 0.000000000000e+000 0.000000000000e+000
          2.238805970141e+001 0.000000000000e+000 0.000000000000e+000
          2.388059701484e+001 0.000000000000e+000 0.000000000000e+000
          2.537313432826e+001 0.000000000000e+000 0.000000000000e+000
          2.686567164169e+001 0.000000000000e+000 0.000000000000e+000
          2.835820895511e+001 0.000000000000e+000 0.000000000000e+000
          2.985074626854e+001 0.000000000000e+000 0.000000000000e+000
          3.134328358196e+001 0.000000000000e+000 0.000000000000e+000
          3.283582089539e+001 0.000000000000e+000 0.000000000000e+000
          3.432835820881e+001 0.000000000000e+000 0.000000000000e+000
          3.582089552224e+001 0.000000000000e+000 0.000000000000e+000
          3.731343283566e+001 0.000000000000e+000 0.000000000000e+000
          3.880597014909e+001 0.000000000000e+000 0.000000000000e+000
          4.029850746251e+001 0.000000000000e+000 0.000000000000e+000
          4.179104477594e+001 0.000000000000e+000 0.000000000000e+000
          4.328358208936e+001 0.000000000000e+000 0.000000000000e+000
          4.477611940279e+001 0.000000000000e+000 0.000000000000e+000
          4.626865671621e+001 0.000000000000e+000 0.000000000000e+000
          4.776119402964e+001 0.000000000000e+000 0.000000000000e+000
          4.925373134306e+001 0.000000000000e+000 0.000000000000e+000
          5.074626865649e+001 0.000000000000e+000 0.000000000000e+000
          5.223880596991e+001 0.000000000000e+000 0.000000000000e+000
          5.373134328334e+001 0.000000000000e+000 0.000000000000e+000
          5.522388059676e+001 0.000000000000e+000 0.000000000000e+000
          5.671641791019e+001 0.000000000000e+000 0.000000000000e+000
          5.820895522361e+001 0.000000000000e+000 0.000000000000e+000
          5.970149253704e+001 0.000000000000e+000 0.000000000000e+000
          6.119402985046e+001 0.000000000000e+000 0.000000000000e+000
          6.268656716389e+001 0.000000000000e+000 0.000000000000e+000
          6.417910447732e+001 0.000000000000e+000 0.000000000000e+000
          6.567164179075e+001 0.000000000000e+000 0.000000000000e+000
          6.716417910418e+001 0.000000000000e+000 0.000000000000e+000
          6.865671641761e+001 0.000000000000e+000 0.000000000000e+000
          7.014925373104e+001 0.000000000000e+000 0.000000000000e+000
          7.164179104447e+001 0.000000000000e+000 0.000000000000e+000
          7.313432835790e+001 0.000000000000e+000 0.000000000000e+000
          7.462686567133e+001 0.000000000000e+000 0.000000000000e+000
          7.611940298476e+001 0.000000000000e+000 0.000000000000e+000
          7.761194029819e+001 0.000000000000e+000 0.000000000000e+000
          7.910447761162e+001 0.000000000000e+000 0.000000000000e+000
          8.059701492505e+001 0.000000000000e+000 0.000000000000e+000
          8.208955223848e+001 0.000000000000e+000 0.000000000000e+000
          8.358208955191e+001 0.000000000000e+000 0.000000000000e+000
          8.507462686534e+001 0.000000000000e+000 0.000000000000e+000
          8.656716417877e+001 0.000000000000e+000 0.000000000000e+000
          8.805970149220e+001 0.000000000000e+000 0.000000000000e+000
          8.955223880563e+001 0.000000000000e+000 0.000000000000e+000
          9.104477611907e+001 0.000000000000e+000 0.000000000000e+000
          9.253731343250e+001 0.000000000000e+000 0.000000000000e+000
          9.402985074593e+001 0.000000000000e+000 0.000000000000e+000
          9.552238805936e+001 0.000000000000e+000 0.000000000000e+000
          9.701492537279e+001 0.000000000000e+000 0.000000000000e+000
          9.850746268622e+001 0.000000000000e+000 0.000000000000e+000
          9.999999999965e+001 0.000000000000e+000 0.000000000000e+000
          1.014925373131e+002 0.000000000000e+000 0.000000000000e+000
          1.029850746265e+002 0.000000000000e+000 0.000000000000e+000
          1.044776119399e+002 0.000000000000e+000 0.000000000000e+000
          1.059701492534e+002 0.000000000000e+000 0.000000000000e+000
          1.074626865668e+002 0.000000000000e+000 0.000000000000e+000
          1.089552238802e+002 0.000000000000e+000 0.000000000000e+000
          1.104477611937e+002 0.000000000000e+000 0.000000000000e+000
          1.119402985071e+002 0.000000000000e+000 0.000000000000e+000
          1.134328358205e+002 0.000000000000e+000 0.000000000000e+000
          1.149253731340e+002 0.000000000000e+000 0.000000000000e+000
          1.164179104474e+002 0.000000000000e+000 0.000000000000e+000
          1.179104477608e+002 0.000000000000e+000 0.000000000000e+000
          1.194029850742e+002 0.000000000000e+000 0.000000000000e+000
          1.208955223877e+002 0.000000000000e+000 0.000000000000e+000
          1.223880597011e+002 0.000000000000e+000 0.000000000000e+000
          1.238805970145e+002 0.000000000000e+000 0.000000000000e+000
          1.253731343280e+002 0.000000000000e+000 0.000000000000e+000
          1.268656716414e+002 0.000000000000e+000 0.000000000000e+000
          1.283582089548e+002 0.000000000000e+000 0.000000000000e+000
          1.298507462683e+002 0.000000000000e+000 0.000000000000e+000
          1.313432835817e+002 0.000000000000e+000 0.000000000000e+000
          1.328358208952e+002 0.000000000000e+000 0.000000000000e+000
          1.343283582086e+002 0.000000000000e+000 0.000000000000e+000
          1.358208955220e+002 0.000000000000e+000 0.000000000000e+000
          1.373134328355e+002 0.000000000000e+000 0.000000000000e+000
          1.388059701489e+002 0.000000000000e+000 0.000000000000e+000
          1.402985074624e+002 0.000000000000e+000 0.000000000000e+000
          1.417910447758e+002 0.000000000000e+000 0.000000000000e+000
          1.432835820892e+002 0.000000000000e+000 0.000000000000e+000
          1.447761194027e+002 0.000000000000e+000 0.000000000000e+000
          1.462686567161e+002 0.000000000000e+000 0.000000000000e+000
          1.477611940296e+002 0.000000000000e+000 0.000000000000e+000
          1.492537313430e+002 0.000000000000e+000 0.000000000000e+000
          1.507462686564e+002 0.000000000000e+000 0.000000000000e+000
          1.522388059699e+002 0.000000000000e+000 0.000000000000e+000
          1.537313432833e+002 0.000000000000e+000 0.000000000000e+000
          1.552238805968e+002 0.000000000000e+000 0.000000000000e+000
          1.567164179102e+002 0.000000000000e+000 0.000000000000e+000
          1.582089552237e+002 0.000000000000e+000 0.000000000000e+000
          1.597014925371e+002 0.000000000000e+000 0.000000000000e+000
          1.611940298505e+002 0.000000000000e+000 0.000000000000e+000
          1.626865671640e+002 0.000000000000e+000 0.000000000000e+000
          1.641791044774e+002 0.000000000000e+000 0.000000000000e+000
          1.656716417909e+002 0.000000000000e+000 0.000000000000e+000
          1.671641791043e+002 0.000000000000e+000 0.000000000000e+000
          1.686567164177e+002 0.000000000000e+000 0.000000000000e+000
          1.701492537312e+002 0.000000000000e+000 0.000000000000e+000
          1.716417910446e+002 0.000000000000e+000 0.000000000000e+000
          1.731343283581e+002 0.000000000000e+000 0.000000000000e+000
          1.746268656715e+002 0.000000000000e+000 0.000000000000e+000
          1.761194029849e+002 0.000000000000e+000 0.000000000000e+000
          1.776119402984e+002 0.000000000000e+000 0.000000000000e+000
          1.791044776118e+002 0.000000000000e+000 0.000000000000e+000
          1.805970149253e+002 0.000000000000e+000 0.000000000000e+000
          1.820895522387e+002 0.000000000000e+000 0.000000000000e+000
          1.835820895521e+002 0.000000000000e+000 0.000000000000e+000
          1.850746268656e+002 0.000000000000e+000 0.000000000000e+000
          1.865671641790e+002 0.000000000000e+000 0.000000000000e+000
          1.880597014925e+002 0.000000000000e+000 0.000000000000e+000
          1.895522388059e+002 0.000000000000e+000 0.000000000000e+000
          1.910447761194e+002 0.000000000000e+000 0.000000000000e+000
          1.925373134328e+002 0.000000000000e+000 0.000000000000e+000
          1.940298507462e+002 0.000000000000e+000 0.000000000000e+000
          1.955223880597e+002 0.000000000000e+000 0.000000000000e+000
          1.970149253731e+002 0.000000000000e+000 0.000000000000e+000
          1.985074626866e+002 0.000000000000e+000 0.000000000000e+000
          2.000000000000e+002 1.428571428570e+000 0.000000000000e+000
          2.000000000000e+002 2.857142857140e+000 0.000000000000e+000
[...]
      <PointData Scalars="Capillary_Pressure">
        <DataArray type="Float64" Name="Capillary_Pressure" format="ascii">
          3.780129267163e+005 0.000000000000e+000 0.000000000000e+000 3.780166050589e+005 3.782545310510e+005 3.754361590599e+005 3.745688971971e+005 3.725937849735e+005 3.723204531991e+005 3.703857848668e+005 3.683254789148e+005 3.682544776233e+005 3.660544734506e+005 3.659048166640e+005 3.640350778090e+005 3.616230583344e+005 3.616696012654e+005 3.596364714419e+005 3.592525100153e+005 3.571259892177e+005 3.536775850098e+005 3.535188840984e+005 3.529776080531e+005 3.499372402269e+005 3.496461435505e+005 3.474511344846e+005 3.468679173333e+005 3.436961018451e+005 3.432469803972e+005 3.411834867402e+005 3.406047026819e+005 3.373768348059e+005 3.369063683052e+005 3.349426550010e+005 3.342740470847e+005 3.306313711464e+005 3.306435438257e+005 3.280446385811e+005 3.256518313904e+005 3.254578206513e+005 3.247440300234e+005 3.215626324368e+005 3.189479329302e+005 3.186293993782e+005 3.149881258243e+005 3.145906183120e+005 3.117641833093e+005 3.113891936833e+005 3.089842420719e+005 3.081503673564e+005 3.040692412867e+005 3.039781580317e+005 3.001258388184e+005 2.996740616379e+005 2.957054336501e+005 2.944435193163e+005 2.923057595106e+005 2.919560299079e+005 2.909225331993e+005 2.871543542375e+005 2.839467923550e+005 2.837130083216e+005 2.797016405512e+005 2.790688485051e+005 2.762256790005e+005 2.728889392979e+005 2.699278342569e+005 2.694406162337e+005 2.648797536430e+005 2.633959592508e+005 2.608376089386e+005 2.577400286765e+005 2.570343044815e+005 2.542176991211e+005 2.505252189985e+005 2.472357234061e+005 2.468394420033e+005 2.433559868523e+005 2.401696182489e+005 2.390047637888e+005 2.332657873028e+005 2.299390604887e+005 2.269056075234e+005 2.233298334198e+005 2.198719640568e+005 2.161889137204e+005 2.156040667791e+005 2.121652289681e+005 2.083433385489e+005 2.048470097170e+005 1.975925129997e+005 1.937878245298e+005 1.899177680467e+005 1.855834624704e+005 1.830365783217e+005 1.754031651928e+005 1.709064033207e+005 1.685285697685e+005 1.602769722170e+005 1.540117250666e+005 1.510173840050e+005 1.406776321172e+005 1.340584505510e+005 1.268620047222e+005 1.178697783469e+005 1.083697263530e+005 9.791021655480e+004 8.507729269412e+004 7.071141029525e+004 5.236601234453e+004 2.777036546935e+004 0.000000000000e+000 0.000000000000e+000 0.000000000000e+000 0.000000000000e+000 0.000000000000e+000 0.000000000000e+000 0.000000000000e+000 0.000000000000e+000 0.000000000000e+000 0.000000000000e+000 0.000000000000e+000 0.000000000000e+000 0.000000000000e+000 0.000000000000e+000 0.000000000000e+000 0.000000000000e+000 0.000000000000e+000 0.000000000000e+000 0.000000000000e+000 0.000000000000e+000 0.000000000000e+000 0.000000000000e+000 0.000000000000e+000 0.000000000000e+000 0.000000000000e+000 0.000000000000e+000 0.000000000000e+000 0.000000000000e+000 0.000000000000e+000 0.000000000000e+000 0.000000000000e+000 0.000000000000e+000 0.000000000000e+000 0.000000000000e+000 0.000000000000e+000 0.000000000000e+000 0.000000000000e+000 0.000000000000e+000 0.000000000000e+000 0.000000000000e+000 0.000000000000e+000 0.000000000000e+000 0.000000000000e+000 0.000000000000e+000 0.000000000000e+000 0.000000000000e+000 0.000000000000e+000 0.000000000000e+000 0.000000000000e+000 0.000000000000e+000 0.000000000000e+000 0.000000000000e+000 0.000000000000e+000 0.000000000000e+000 0.000000000000e+000 0.000000000000e+000 0.000000000000e+000 0.000000000000e+000 0.000000000000e+000 0.000000000000e+000 0.000000000000e+000 0.000000000000e+000 0.000000000000e+000 0.000000000000e+000 0.000000000000e+000 2.774341140684e+004 5.233569807761e+004 7.070230350027e+004 8.506295386419e+004 9.791499251204e+004 1.083949108735e+005 1.178594087865e+005 1.268610190443e+005 1.340511937946e+005 1.406659215406e+005 1.510158122718e+005 1.540027479352e+005 1.602567013974e+005 1.685199348200e+005 1.709000461321e+005 1.754139087948e+005 1.830253297054e+005 1.855795793708e+005 1.899068464717e+005 1.937646329769e+005 1.975922810859e+005 2.048477302848e+005 2.083481480998e+005 2.121684575459e+005 2.155977257355e+005 2.161977658662e+005 2.198777527183e+005 2.233513780836e+005 2.269024667799e+005 2.299490710950e+005 2.332363846388e+005 2.389921996889e+005 2.401621043363e+005 2.433716491335e+005 2.468242124630e+005 2.472242695470e+005 2.505170861922e+005 2.542040938562e+005 2.570492638986e+005 2.603197239543e+005 2.608412015791e+005 2.633854756131e+005 2.648486290322e+005 2.694536948865e+005 2.725764301537e+005 2.728954591679e+005 2.761479202579e+005 2.790859854198e+005 2.797161624766e+005 2.837019482066e+005 2.839559002049e+005 2.871919882897e+005 2.909207985316e+005 2.919567541989e+005 2.923295127850e+005 2.944534229370e+005 2.988116447513e+005 2.996918527658e+005 3.001213677466e+005 3.039947238987e+005 3.041157102486e+005 3.081370154241e+005 3.089511886488e+005 3.113812120993e+005 3.117503419293e+005 3.145646212401e+005 3.178408862528e+005 3.186293129450e+005 3.189176527216e+005 3.215684442631e+005 3.247338170944e+005 3.254668003251e+005 3.256386157493e+005 3.280385006323e+005 3.306494073929e+005 3.306259796621e+005 3.342749706557e+005 3.349375573149e+005 3.369043633406e+005 3.373785966334e+005 3.406030881549e+005 3.411820488683e+005 3.432465299361e+005 3.436875300577e+005 3.468732563013e+005 3.474438210336e+005 3.496429982825e+005 3.499427730764e+005 3.529802178682e+005 3.535148458530e+005 3.536815633160e+005 3.571157623910e+005 3.592481736858e+005 3.596326342925e+005 3.616778457697e+005 3.616145265318e+005 3.639581539907e+005 3.640109684728e+005 3.660625226136e+005 3.682625068732e+005 3.683039467775e+005 3.703988833459e+005 3.723249830940e+005 3.726050664640e+005 3.745286989898e+005 3.754419133216e+005 3.782531165774e+005 3.780183632721e+005 3.780163758317e+005 3.780178871379e+005 3.780175434400e+005 3.780123748552e+005 3.780154487676e+005 3.780165502458e+005 3.780127546819e+005 3.780147101980e+005 3.780197758408e+005 3.780141398401e+005 3.780153879340e+005 3.780150170542e+005 0.000000000000e+000 3.703772424412e+005 0.000000000000e+000 0.000000000000e+000 4.248472800335e+004 1.308516261743e+005 1.755176918953e+005 3.533249466026e+005 2.043955372401e+005 3.411932032014e+005 3.308809855347e+005 3.188719716876e+005 2.993774109260e+005 2.842890597181e+005 2.689767856393e+005 2.502186880924e+005 2.303708033669e+005 3.618517584694e+005 3.089668521937e+005 2.161785809259e+005 2.192782122478e+005 2.401465440688e+005 2.603633831201e+005 2.761256584564e+005 2.919635674366e+005 0.000000000000e+000 0.000000000000e+000 9.665079006930e+004 2.919552914852e+005 2.763325479120e+005 2.601865599396e+005 2.397508464620e+005 1.538336477246e+005 1.898800776800e+005 3.474580796887e+005 3.369665255295e+005 3.254007517342e+005 1.898670342613e+005 1.539906234676e+005 9.789251475726e+004 0.000000000000e+000 0.000000000000e+000 3.254860627899e+005 3.369086904043e+005 3.474390480525e+005 0.000000000000e+000 0.000000000000e+000 3.118533285469e+005 3.044691532758e+005 3.658887278095e+005 3.571101919150e+005 0.000000000000e+000 3.725976188180e+005 0.000000000000e+000 3.726101406301e+005 3.656518989828e+005 3.571529993172e+005 3.147023238155e+005 3.037623784549e+005 0.000000000000e+000 2.303816015769e+005 0.000000000000e+000 2.502126078433e+005 2.689719079535e+005 2.842759057146e+005 2.990218400038e+005 2.044312780858e+005 4.061678176712e+004 1.299513229143e+005 1.755008541927e+005 3.412185404927e+005 3.309337264968e+005 2.053914815355e+005 1.756405474306e+005 1.307819316765e+005 4.124219740124e+004 2.842915757916e+005 2.689616140213e+005 2.502359002385e+005 0.000000000000e+000 2.303384797619e+005 0.000000000000e+000 3.189318086936e+005 3.308858996341e+005 3.412124878025e+005 3.533316228202e+005 0.000000000000e+000 0.000000000000e+000 3.683060258341e+005 3.529765684119e+005 2.955496620685e+005 3.211213856743e+005 0.000000000000e+000 3.745881026123e+005 3.618390582537e+005 3.703394507966e+005 3.618608298976e+005 3.089264546929e+005 3.144115872722e+005 3.042085864035e+005 3.660654273826e+005 3.570981887628e+005 3.089484228922e+005 0.000000000000e+000 8.716722255978e+004 0.000000000000e+000 1.511189400232e+005 0.000000000000e+000 1.860125556485e+005 2.391349382069e+005 2.731210317734e+005 2.879903333409e+005 2.571851857246e+005 3.468852577582e+005 3.255974341095e+005 3.368793674806e+005 2.197704382831e+005 3.089919490308e+005 0.000000000000e+000 3.754275232680e+005 0.000000000000e+000 3.754257669694e+005 2.345940914511e+005 2.541797252726e+005 2.731192759516e+005 2.875444225819e+005 1.977114888275e+005 2.232599672840e+005 2.121402664746e+005 1.650386484925e+005 3.217332069844e+005 1.120531820993e+005 3.347540071317e+005 0.000000000000e+000 3.439550642035e+005 0.000000000000e+000 0.000000000000e+000 0.000000000000e+000 0.000000000000e+000 0.000000000000e+000 1.128893075461e+005 8.066146581669e+004 1.651672232182e+005 1.476419994933e+005 3.439014477020e+005 1.865121144770e+005 1.977242707823e+005 3.347154129835e+005 3.375275614156e+005 2.875011893845e+005 2.731105582324e+005 2.541654348244e+005 2.793721787818e+005 2.611527134869e+005 2.386477353503e+005 2.429290660477e+005 3.256945097122e+005 2.121399318577e+005 2.230410880043e+005 0.000000000000e+000 3.498018368250e+005 0.000000000000e+000 3.374645504746e+005 8.281319038701e+004 3.257765680161e+005 1.470030467741e+005 2.947141061535e+005 2.795065493734e+005 2.612859084442e+005 2.461848546701e+005 1.866818745103e+005 3.618302022068e+005 0.000000000000e+000 0.000000000000e+000 3.036234768454e+005 3.173187333224e+005 3.569494569819e+005 2.122360954054e+005 2.611571259546e+005 2.428460419206e+005 2.793100223008e+005 2.946996498638e+005 3.497762567814e+005 3.347875694280e+005 0.000000000000e+000 3.217334101289e+005 0.000000000000e+000 1.136096792949e+005 1.976195451126e+005 1.611304669134e+005 3.496456938422e+005 0.000000000000e+000 0.000000000000e+000 3.077098523545e+005 3.660568021468e+005 0.000000000000e+000 2.120441956972e+005 2.011018325269e+005 1.686290199962e+005 3.213930106068e+005 1.186530470326e+005 3.342233017193e+005 2.797499586234e+005 2.634014297226e+005 2.469155594191e+005 0.000000000000e+000 3.499377701783e+005 0.000000000000e+000 3.594169568506e+005 2.949105656505e+005 0.000000000000e+000 0.000000000000e+000 0.000000000000e+000 2.922169813224e+005 3.247924213732e+005 3.000686007778e+005 3.179398898123e+005 3.723393362312e+005 3.536402426288e+005 3.682228425713e+005 3.639224525101e+005 3.536368819966e+005 2.332404604974e+005 2.542128021829e+005 2.726078493300e+005 2.871929822489e+005 0.000000000000e+000 3.436951204083e+005 0.000000000000e+000 2.234047989831e+005 1.830647047620e+005 0.000000000000e+000 1.405642709383e+005 0.000000000000e+000 7.066687858676e+004 2.338300322702e+005 2.542468198064e+005 2.725656277090e+005 2.871558421232e+005 3.436204088900e+005 3.280055653933e+005 3.406148332068e+005 3.406096703834e+005 6.976682528798e+004 3.275637589303e+005 1.405857154374e+005 1.829734349068e+005 2.233766351133e+005 0.000000000000e+000 0.000000000000e+000 3.754277763997e+005 3.754386897132e+005 0.000000000000e+000 3.718844478487e+005 0.000000000000e+000 0.000000000000e+000 3.704303479780e+005 0.000000000000e+000 3.682277238660e+005 3.718910057008e+005 3.181353751639e+005 2.994878546875e+005 3.530819719724e+005 3.681388126154e+005 3.186826359990e+005 3.595206365159e+005 3.596655390790e+005 2.995989506342e+005 3.638106281104e+005 3.143355583699e+005 3.078204069133e+005 3.639609622051e+005 3.345433592334e+005 1.972024790372e+005 1.643594879991e+005 1.157721621918e+005 0.000000000000e+000 0.000000000000e+000 2.124260119254e+005 2.949406067037e+005 2.791347922562e+005 2.639436701598e+005 2.465870239501e+005 3.117442489242e+005 3.596003184228e+005 3.046553469137e+005 3.112674825095e+005 0.000000000000e+000 0.000000000000e+000 3.494960735497e+005 3.242681792619e+005 3.704570759222e+005 3.725546610758e+005 0.000000000000e+000 3.638630107695e+005 2.303879048844e+005 2.531742011034e+005 2.694780015807e+005 2.839640964162e+005 2.048785210882e+005 2.051554435255e+005 2.267885952445e+005 1.708461609167e+005 1.282813310836e+005 3.189490735300e+005 2.603931347519e+004 3.310000050108e+005 0.000000000000e+000 3.432707711657e+005 0.000000000000e+000 0.000000000000e+000 2.560336201854e+004 1.282217357137e+005 1.720338961203e+005 3.432897719894e+005 3.310056397483e+005 2.839470620360e+005 2.695003339515e+005 2.532017648994e+005 0.000000000000e+000 3.529650785388e+005 2.956387360162e+005 0.000000000000e+000 0.000000000000e+000 0.000000000000e+000 3.501088983302e+005 3.537485372326e+005 3.682151044361e+005 3.080862208847e+005 0.000000000000e+000 0.000000000000e+000 1.031550443000e+005 1.574628197926e+005 1.941214688399e+005 3.474966799386e+005 3.348426564575e+005 3.250682723899e+005 2.401144682177e+005 2.763078703571e+005 2.923273522920e+005 2.608742670474e+005 2.159440652915e+005 0.000000000000e+000 0.000000000000e+000 0.000000000000e+000 0.000000000000e+000 1.313476942864e+005 1.753972282387e+005 3.309646447182e+005 2.841578430960e+005 2.686921774857e+005 2.500371745958e+005 3.748144138649e+005 3.114695356212e+005 2.051694655173e+005 2.047566277842e+005 2.990337067302e+005 0.000000000000e+000 3.780994170035e+005 3.214081343755e+005 2.946132866779e+005 1.899401520984e+005 1.540629574641e+005 9.794051655031e+004 0.000000000000e+000 0.000000000000e+000 3.254466157088e+005 3.368848469496e+005 3.474480422786e+005 2.603147076214e+005 2.401703457338e+005 2.919589989970e+005 2.762137404697e+005 0.000000000000e+000 0.000000000000e+000 2.761788363228e+005 2.602921421793e+005 9.789618383463e+004 2.401748222959e+005 1.540165777376e+005 1.898699688854e+005 3.369025343300e+005 2.161456767491e+005 2.162023513641e+005 3.593867006030e+005 3.150977378469e+005 3.616358791562e+005 2.926261468389e+005 3.088064588886e+005 0.000000000000e+000 0.000000000000e+000 3.039724731393e+005 3.004820900156e+005 3.084709232115e+005 2.005912850120e+005 2.308726645388e+005 2.269826643569e+005 2.078249236391e+005 2.465431825059e+005 2.645042479783e+005 2.833400884542e+005 1.782058887619e+005 3.410068947185e+005 3.303379500037e+005 0.000000000000e+000 6.097829747082e+004 1.372405757641e+005 0.000000000000e+000 3.410024227069e+005 6.104329316260e+004 3.303291220672e+005 2.833249033984e+005 2.644738600184e+005 2.469230136646e+005 1.372477679944e+005 1.782216493177e+005 3.749060356072e+005 3.680922252295e+005 0.000000000000e+000 3.749021268475e+005 2.303557825267e+005 2.304118828173e+005 3.412201506759e+005 3.412336459070e+005 4.010115265990e+004 4.063326000485e+004 0.000000000000e+000 3.637623643359e+005 3.703698598221e+005 3.529539335890e+005 3.618777576737e+005 0.000000000000e+000 3.780964050715e+005 0.000000000000e+000 3.780965715475e+005 3.658993468242e+005 0.000000000000e+000 0.000000000000e+000 1.756689208030e+005 1.308028362677e+005 3.308982577865e+005 2.500926670749e+005 2.843195587003e+005 2.690125784278e+005 0.000000000000e+000 3.572146379672e+005 3.571738461843e+005 3.682279287359e+005 2.999198351320e+005 3.182771760548e+005 3.682562929795e+005 3.535027522818e+005 3.473564434963e+005 3.144542731854e+005 3.566872841148e+005 0.000000000000e+000 0.000000000000e+000 3.173597962707e+005 3.002618849836e+005 0.000000000000e+000 3.190661513788e+005 3.001238177370e+005 3.040631808770e+005 0.000000000000e+000 3.497995923135e+005 0.000000000000e+000 2.797385757651e+005 2.634007070891e+005 2.469051175104e+005 2.088041668775e+005 3.347325441631e+005 1.121180945514e+005 3.241471853373e+005 1.650941522455e+005 2.011714466046e+005 0.000000000000e+000 3.596663149189e+005 3.047345326051e+005 3.112228108543e+005 3.189468926610e+005 3.639700106450e+005 0.000000000000e+000 3.780926011917e+005 0.000000000000e+000 3.782405866733e+005 3.704943581755e+005 3.533145783496e+005 3.090494031029e+005 3.144548338105e+005 0.000000000000e+000 3.256545528725e+005 2.916036424059e+005 3.571883994464e+005 2.998651345231e+005 3.617846782522e+005 1.865951318597e+005 1.464677795977e+005 8.164607068982e+004 3.258013703698e+005 3.375403360986e+005 6.875838443475e+004 0.000000000000e+000 1.404832785603e+005 0.000000000000e+000 1.828637161319e+005 3.406511537019e+005 3.275798911613e+005 3.431155620906e+005 2.871201373486e+005 2.541696800509e+005 2.698560317138e+005 2.340624250117e+005 0.000000000000e+000 0.000000000000e+000 3.439131237763e+005 2.231251110193e+005 2.876165008807e+005 2.731927422399e+005 2.542462323584e+005 2.386682625839e+005 2.234288384578e+005 2.161789427993e+005 2.401633553859e+005 2.762376644597e+005 2.603693708330e+005 2.919597480435e+005 0.000000000000e+000 0.000000000000e+000 9.785866990839e+004 1.898644700088e+005 1.539696647575e+005 3.474420797716e+005 3.368954894647e+005 3.254617790534e+005 3.183113611126e+005 3.536444331903e+005 0.000000000000e+000 3.704916736918e+005 2.235931563461e+005 2.339290386490e+005 2.540716642177e+005 2.723460260364e+005 2.870244090005e+005 2.717742230797e+003 0.000000000000e+000 3.430255173963e+005 6.693232723849e+004 1.403575241859e+005 1.827199604396e+005 3.408334936062e+005 3.276403963720e+005 3.085445634544e+005 0.000000000000e+000 3.115056502411e+005 0.000000000000e+000 2.194023316379e+005 2.161039019268e+005 2.399904311017e+005 2.599979391382e+005 2.759762130081e+005 2.916821362245e+005 0.000000000000e+000 0.000000000000e+000 9.929611833828e+004 1.579210404260e+005 1.894598251406e+005 3.368130166823e+005 1.899736714973e+005 2.761149675109e+005 2.578317721410e+005 2.400254159009e+005 1.541083180570e+005 9.797885243007e+004 3.254161214607e+005 0.000000000000e+000 3.368659697430e+005 0.000000000000e+000 3.474462284880e+005 3.618447576987e+005 0.000000000000e+000 3.470881413682e+005 0.000000000000e+000 2.731256145893e+005 2.391881125260e+005 2.569996715137e+005 2.879849846260e+005 3.367934417927e+005 8.831637650359e+004 3.252839691209e+005 1.498238382063e+005 1.861920968189e+005 2.195552758551e+005 3.704082427499e+005 0.000000000000e+000 3.780980677536e+005 0.000000000000e+000 0.000000000000e+000 0.000000000000e+000 3.116561077892e+005 3.048696116549e+005 3.573214790885e+005 3.473911696617e+005 0.000000000000e+000 3.700064705822e+005 0.000000000000e+000 0.000000000000e+000 3.534474020708e+005 2.012243993083e+005 1.687486924514e+005 3.215083897849e+005 1.223319782928e+005 3.341860321298e+005 2.468162880196e+005 2.634124867013e+005 2.796939597388e+005 2.087870472395e+005 0.000000000000e+000 3.500137226104e+005 0.000000000000e+000 3.189561182944e+005 2.990944765741e+005 3.117825159732e+005 3.660260743466e+005 3.682191627638e+005 0.000000000000e+000 3.746138910380e+005 0.000000000000e+000 3.746158340183e+005 2.915643723785e+005 3.256406576525e+005 2.946068056143e+005 3.639048610911e+005 0.000000000000e+000 3.748143206205e+005 3.147596713956e+005 3.044140987629e+005 3.118799211667e+005 3.573381455510e+005 3.659301809200e+005 3.616755517646e+005 3.218281827100e+005 3.659328143635e+005 3.596966040779e+005 3.117897223011e+005 3.683234309181e+005 3.661086875661e+005 3.085747825562e+005 3.177609776627e+005 3.042521283936e+005 3.145146580097e+005 0.000000000000e+000 3.723309443628e+005 3.499067460455e+005 2.159098303126e+005 2.078929923814e+005 0.000000000000e+000 0.000000000000e+000 0.000000000000e+000 0.000000000000e+000 1.187436208064e+005 1.686987007066e+005 3.341925041522e+005 1.934731360604e+005 2.005550285453e+005 2.922836379235e+005 2.947302952681e+005 2.789765961454e+005 2.832928303901e+005 2.644087639474e+005 2.603485932093e+005 2.433803282080e+005 2.473040884383e+005 3.725924692751e+005 0.000000000000e+000 0.000000000000e+000 0.000000000000e+000 0.000000000000e+000 3.749330255912e+005 0.000000000000e+000 2.344208269104e+005 2.541060520570e+005 2.730348714230e+005 2.868187660989e+005 2.232719718133e+005 2.116986658252e+005 1.978395382311e+005 1.652426470574e+005 3.216342583369e+005 1.129416418298e+005 3.346759104897e+005 0.000000000000e+000 3.438825624465e+005 0.000000000000e+000 0.000000000000e+000 0.000000000000e+000 0.000000000000e+000 1.129645107458e+005 1.65241