<?xml version="1.0"?>
<VTKFile type="UnstructuredGrid" version="0.1" byte_order="LittleEndian">
  <UnstructuredGrid>
    <Piece NumberOfPoints="2604" NumberOfCells="4910">
      <Points>
        <DataArray type="Float64" NumberOfComponents="3" format="ascii">
          0.000000000000e+000 0.000000000000e+000 0.000000000000e+000
          2.000000000000e+002 0.000000000000e+000 0.000000000000e+000
          2.000000000000e+002 2.000000000000e+001 0.000000000000e+000
          0.000000000000e+000 2.000000000000e+001 0.000000000000e+000
          1.492537313427e+000 0.000000000000e+000 0.000000000000e+000
          2.985074626854e+000 0.000000000000e+000 0.000000000000e+000
          4.477611940281e+000 0.000000000000e+000 0.000000000000e+000
          5.970149253708e+000 0.000000000000e+000 0.000000000000e+000
          7.462686567135e+000 0.000000000000e+000 0.000000000000e+000
          8.955223880561e+000 0.000000000000e+000 0.000000000000e+000
          1.044776119399e+001 0.000000000000e+000 0.000000000000e+000
          1.194029850741e+001 0.000000000000e+000 0.000000000000e+000
          1.343283582084e+001 0.000000000000e+000 0.000000000000e+000
          1.492537313427e+001 0.000000000000e+000 0.000000000000e+000
          1.641791044770e+001 0.000000000000e+000 0.000000000000e+000
          1.791044776112e+001 0.000000000000e+000 0.000000000000e+000
          1.940298507455e+001 0.000000000000e+000 0.000000000000e+000
          2.089552238798e+001 0.000000000000e+000 0.000000000000e+000
          2.238805970141e+001 0.000000000000e+000 0.000000000000e+000
          2.388059701484e+001 0.000000000000e+000 0.000000000000e+000
          2.537313432826e+001 0.000000000000e+000 0.000000000000e+000
          2.686567164169e+001 0.000000000000e+000 0.000000000000e+000
          2.835820895511e+001 0.000000000000e+000 0.000000000000e+000
          2.985074626854e+001 0.000000000000e+000 0.000000000000e+000
          3.134328358196e+001 0.000000000000e+000 0.000000000000e+000
          3.283582089539e+001 0.000000000000e+000 0.000000000000e+000
          3.432835820881e+001 0.000000000000e+000 0.000000000000e+000
          3.582089552224e+001 0.000000000000e+000 0.000000000000e+000
          3.731343283566e+001 0.000000000000e+000 0.000000000000e+000
          3.880597014909e+001 0.000000000000e+000 0.000000000000e+000
          4.029850746251e+001 0.000000000000e+000 0.000000000000e+000
          4.179104477594e+001 0.000000000000e+000 0.000000000000e+000
          4.328358208936e+001 0.000000000000e+000 0.000000000000e+000
          4.477611940279e+001 0.000000000000e+000 0.000000000000e+000
          4.626865671621e+001 0.000000000000e+000 0.000000000000e+000
          4.776119402964e+001 0.000000000000e+000 0.000000000000e+000
          4.925373134306e+001 0.000000000000e+000 0.000000000000e+000
          5.074626865649e+001 0.000000000000e+000 0.000000000000e+000
          5.223880596991e+001 0.000000000000e+000 0.000000000000e+000
          5.373134328334e+001 0.000000000000e+000 0.000000000000e+000
          5.522388059676e+001 0.000000000000e+000 0.000000000000e+000
          5.671641791019e+001 0.000000000000e+000 0.000000000000e+000
          5.820895522361e+001 0.000000000000e+000 0.000000000000e+000
          5.970149253704e+001 0.000000000000e+000 0.000000000000e+000
          6.119402985046e+001 0.000000000000e+000 0.000000000000e+000
          6.268656716389e+001 0.000000000000e+000 0.000000000000e+000
          6.417910447732e+001 0.000000000000e+000 0.000000000000e+000
          6.567164179075e+001 0.000000000000e+000 0.000000000000e+000
          6.716417910418e+001 0.000000000000e+000 0.000000000000e+000
          6.865671641761e+001 0.000000000000e+000 0.000000000000e+000
          7.014925373104e+001 0.000000000000e+000 0.000000000000e+000
          7.164179104447e+001 0.000000000000e+000 0.000000000000e+000
          7.313432835790e+001 0.000000000000e+000 0.000000000000e+000
          7.462686567133e+001 0.000000000000e+000 0.000000000000e+000
          7.611940298476e+001 0.000000000000e+000 0.000000000000e+000
          7.761194029819e+001 0.000000000000e+000 0.000000000000e+000
          7.910447761162e+001 0.000000000000e+000 0.000000000000e+000
          8.059701492505e+001 0.000000000000e+000 0.000000000000e+000
          8.208955223848e+001 0.000000000000e+000 0.000000000000e+000
          8.358208955191e+001 0.000000000000e+000 0.000000000000e+000
          8.507462686534e+001 0.000000000000e+000 0.000000000000e+000
          8.656716417877e+001 0.000000000000e+000 0.000000000000e+000
          8.805970149220e+001 0.000000000000e+000 0.000000000000e+000
          8.955223880563e+001 0.000000000000e+000 0.000000000000e+000
          9.104477611907e+001 0.000000000000e+000 0.000000000000e+000
          9.253731343250e+001 0.000000000000e+000 0.000000000000e+000
          9.402985074593e+001 0.000000000000e+000 0.000000000000e+000
          9.552238805936e+001 0.000000000000e+000 0.000000000000e+000
          9.701492537279e+001 0.000000000000e+000 0.000000000000e+000
          9.850746268622e+001 0.000000000000e+000 0.000000000000e+000
          9.999999999965e+001 0.000000000000e+000 0.000000000000e+000
          1.014925373131e+002 0.000000000000e+000 0.000000000000e+000
          1.029850746265e+002 0.000000000000e+000 0.000000000000e+000
          1.044776119399e+002 0.000000000000e+000 0.000000000000e+000
          1.059701492534e+002 0.000000000000e+000 0.000000000000e+000
          1.074626865668e+002 0.000000000000e+000 0.000000000000e+000
          1.089552238802e+002 0.000000000000e+000 0.000000000000e+000
          1.104477611937e+002 0.000000000000e+000 0.000000000000e+000
          1.119402985071e+002 0.000000000000e+000 0.000000000000e+000
          1.134328358205e+002 0.000000000000e+000 0.000000000000e+000
          1.149253731340e+002 0.000000000000e+000 0.000000000000e+000
          1.164179104474e+002 0.000000000000e+000 0.000000000000e+000
          1.179104477608e+002 0.000000000000e+000 0.000000000000e+000
          1.194029850742e+002 0.000000000000e+000 0.000000000000e+000
          1.208955223877e+002 0.000000000000e+000 0.000000000000e+000
          1.223880597011e+002 0.000000000000e+000 0.000000000000e+000
          1.238805970145e+002 0.000000000000e+000 0.000000000000e+000
          1.253731343280e+002 0.000000000000e+000 0.000000000000e+000
          1.268656716414e+002 0.000000000000e+000 0.000000000000e+000
          1.283582089548e+002 0.000000000000e+000 0.000000000000e+000
          1.298507462683e+002 0.000000000000e+000 0.000000000000e+000
          1.313432835817e+002 0.000000000000e+000 0.000000000000e+000
          1.328358208952e+002 0.000000000000e+000 0.000000000000e+000
          1.343283582086e+002 0.000000000000e+000 0.000000000000e+000
          1.358208955220e+002 0.000000000000e+000 0.000000000000e+000
          1.373134328355e+002 0.000000000000e+000 0.000000000000e+000
          1.388059701489e+002 0.000000000000e+000 0.000000000000e+000
          1.402985074624e+002 0.000000000000e+000 0.000000000000e+000
          1.417910447758e+002 0.000000000000e+000 0.000000000000e+000
          1.432835820892e+002 0.000000000000e+000 0.000000000000e+000
          1.447761194027e+002 0.000000000000e+000 0.000000000000e+000
          1.462686567161e+002 0.000000000000e+000 0.000000000000e+000
          1.477611940296e+002 0.000000000000e+000 0.000000000000e+000
          1.492537313430e+002 0.000000000000e+000 0.000000000000e+000
          1.507462686564e+002 0.000000000000e+000 0.000000000000e+000
          1.522388059699e+002 0.000000000000e+000 0.000000000000e+000
          1.537313432833e+002 0.000000000000e+000 0.000000000000e+000
          1.552238805968e+002 0.000000000000e+000 0.000000000000e+000
          1.567164179102e+002 0.000000000000e+000 0.000000000000e+000
          1.582089552237e+002 0.000000000000e+000 0.000000000000e+000
          1.597014925371e+002 0.000000000000e+000 0.000000000000e+000
          1.611940298505e+002 0.000000000000e+000 0.000000000000e+000
          1.626865671640e+002 0.000000000000e+000 0.000000000000e+000
          1.641791044774e+002 0.000000000000e+000 0.000000000000e+000
          1.656716417909e+002 0.000000000000e+000 0.000000000000e+000
          1.671641791043e+002 0.000000000000e+000 0.000000000000e+000
          1.686567164177e+002 0.000000000000e+000 0.000000000000e+000
          1.701492537312e+002 0.000000000000e+000 0.000000000000e+000
          1.716417910446e+002 0.000000000000e+000 0.000000000000e+000
          1.731343283581e+002 0.000000000000e+000 0.000000000000e+000
          1.746268656715e+002 0.000000000000e+000 0.000000000000e+000
          1.761194029849e+002 0.000000000000e+000 0.000000000000e+000
          1.776119402984e+002 0.000000000000e+000 0.000000000000e+000
          1.791044776118e+002 0.000000000000e+000 0.000000000000e+000
          1.805970149253e+002 0.000000000000e+000 0.000000000000e+000
          1.820895522387e+002 0.000000000000e+000 0.000000000000e+000
          1.835820895521e+002 0.000000000000e+000 0.000000000000e+000
          1.850746268656e+002 0.000000000000e+000 0.000000000000e+000
          1.865671641790e+002 0.000000000000e+000 0.000000000000e+000
          1.880597014925e+002 0.000000000000e+000 0.000000000000e+000
          1.895522388059e+002 0.000000000000e+000 0.000000000000e+000
          1.910447761194e+002 0.000000000000e+000 0.000000000000e+000
          1.925373134328e+002 0.000000000000e+000 0.000000000000e+000
          1.940298507462e+002 0.000000000000e+000 0.000000000000e+000
          1.955223880597e+002 0.000000000000e+000 0.000000000000e+000
          1.970149253731e+002 0.000000000000e+000 0.000000000000e+000
          1.985074626866e+002 0.000000000000e+000 0.000000000000e+000
          2.000000000000e+002 1.428571428570e+000 0.000000000000e+000
          2.000000000000e+002 2.857142857140e+000 0.000000000000e+000
[...]
      <PointData Scalars="Capillary_Pressure">
        <DataArray type="Float64" Name="Capillary_Pressure" format="ascii">
          3.857891852092e+005 0.000000000000e+000 0.000000000000e+000 3.857914629436e+005 3.860165015665e+005 3.832856419094e+005 3.824235057075e+005 3.804927612636e+005 3.802198736846e+005 3.783255858269e+005 3.762981625613e+005 3.762221813813e+005 3.740540573017e+005 3.738861685825e+005 3.720063935394e+005 3.696359011506e+005 3.696801775356e+005 3.676624261732e+005 3.672531480194e+005 3.651489191133e+005 3.617545725524e+005 3.615484237385e+005 3.609824642106e+005 3.579773080945e+005 3.576410004065e+005 3.554549903139e+005 3.548291695782e+005 3.516878043703e+005 3.511861359442e+005 3.491201785925e+005 3.484812133870e+005 3.452809083137e+005 3.447549326648e+005 3.427762262025e+005 3.420383785205e+005 3.384381246655e+005 3.383515044787e+005 3.357416116464e+005 3.333507026663e+005 3.330628473867e+005 3.322653448682e+005 3.291070718481e+005 3.264305460549e+005 3.260603832152e+005 3.223945502083e+005 3.219263193433e+005 3.190971076049e+005 3.186041422903e+005 3.161633627488e+005 3.152544522909e+005 3.111654712105e+005 3.109746639659e+005 3.071166134603e+005 3.065561658567e+005 3.025932272304e+005 3.012235810628e+005 2.990374068244e+005 2.985693065868e+005 2.974392009884e+005 2.936457620996e+005 2.904230900154e+005 2.900479243529e+005 2.859953469316e+005 2.852951279367e+005 2.823672399360e+005 2.789871470041e+005 2.759746279704e+005 2.753520693630e+005 2.708018354639e+005 2.691960474112e+005 2.665834789700e+005 2.634286870880e+005 2.625655450074e+005 2.596867085820e+005 2.559495068248e+005 2.526198159871e+005 2.520689375042e+005 2.485219046442e+005 2.452763795489e+005 2.439597089554e+005 2.382518236423e+005 2.348728358360e+005 2.317276154251e+005 2.281214386901e+005 2.245840928605e+005 2.208530998515e+005 2.201214422821e+005 2.166064535658e+005 2.127158682025e+005 2.091742560416e+005 2.019524831715e+005 1.980788728445e+005 1.941468024999e+005 1.897874736454e+005 1.871423728165e+005 1.795677596148e+005 1.750428451719e+005 1.725541591527e+005 1.643993603741e+005 1.581684946671e+005 1.550908341350e+005 1.449561327086e+005 1.384160732953e+005 1.313301240107e+005 1.225567528745e+005 1.133360968973e+005 1.032615150297e+005 9.105139865257e+004 7.758203180929e+004 6.075892450023e+004 3.886041768331e+004 7.457453120492e+003 0.000000000000e+000 0.000000000000e+000 0.000000000000e+000 0.000000000000e+000 0.000000000000e+000 0.000000000000e+000 0.000000000000e+000 0.000000000000e+000 0.000000000000e+000 0.000000000000e+000 0.000000000000e+000 0.000000000000e+000 0.000000000000e+000 0.000000000000e+000 0.000000000000e+000 0.000000000000e+000 0.000000000000e+000 0.000000000000e+000 0.000000000000e+000 0.000000000000e+000 0.000000000000e+000 0.000000000000e+000 0.000000000000e+000 0.000000000000e+000 0.000000000000e+000 0.000000000000e+000 0.000000000000e+000 0.000000000000e+000 0.000000000000e+000 0.000000000000e+000 0.000000000000e+000 0.000000000000e+000 0.000000000000e+000 0.000000000000e+000 0.000000000000e+000 0.000000000000e+000 0.000000000000e+000 0.000000000000e+000 0.000000000000e+000 0.000000000000e+000 0.000000000000e+000 0.000000000000e+000 0.000000000000e+000 0.000000000000e+000 0.000000000000e+000 0.000000000000e+000 0.000000000000e+000 0.000000000000e+000 0.000000000000e+000 0.000000000000e+000 0.000000000000e+000 0.000000000000e+000 0.000000000000e+000 0.000000000000e+000 0.000000000000e+000 0.000000000000e+000 0.000000000000e+000 0.000000000000e+000 0.000000000000e+000 0.000000000000e+000 0.000000000000e+000 0.000000000000e+000 0.000000000000e+000 7.452777113065e+003 3.884894270293e+004 6.073028876330e+004 7.757282695419e+004 9.103663297418e+004 1.032647016267e+005 1.133572447540e+005 1.225449957414e+005 1.313278555791e+005 1.384095845925e+005 1.449492380930e+005 1.550871087974e+005 1.581604638054e+005 1.643829223701e+005 1.725470531449e+005 1.750399957077e+005 1.795710970081e+005 1.871339809553e+005 1.897827471685e+005 1.941371806950e+005 1.980593095912e+005 2.019317425099e+005 2.091681678466e+005 2.127204141985e+005 2.166092142781e+005 2.201209248661e+005 2.208497784398e+005 2.245935614909e+005 2.281308804075e+005 2.317183391074e+005 2.348762786824e+005 2.382332891146e+005 2.439490516694e+005 2.452597351227e+005 2.485256667457e+005 2.520545685095e+005 2.526070122981e+005 2.559359530935e+005 2.596757236012e+005 2.625797769394e+005 2.659267941898e+005 2.665823335805e+005 2.691786999528e+005 2.707796250583e+005 2.753649991682e+005 2.785457681822e+005 2.789731123073e+005 2.823026900783e+005 2.852969744131e+005 2.859976958332e+005 2.900495996914e+005 2.904300203263e+005 2.936750655334e+005 2.974353671135e+005 2.985747617640e+005 2.990514705653e+005 3.012477649978e+005 3.055914263969e+005 3.065774670013e+005 3.071175653133e+005 3.109790445270e+005 3.112064612983e+005 3.152355898847e+005 3.161343130253e+005 3.185900058008e+005 3.190745048557e+005 3.219091162178e+005 3.251695951995e+005 3.260593170257e+005 3.264195005679e+005 3.291000563959e+005 3.322691208915e+005 3.330650103582e+005 3.333431792329e+005 3.357437529934e+005 3.383522326497e+005 3.384365214500e+005 3.420349638802e+005 3.427724985857e+005 3.447523097075e+005 3.452839758520e+005 3.484790471711e+005 3.491192236949e+005 3.511852186651e+005 3.516819975484e+005 3.548302432316e+005 3.554493825734e+005 3.576414166757e+005 3.579811744543e+005 3.609820223400e+005 3.615521779433e+005 3.617632305507e+005 3.651392443181e+005 3.672503524687e+005 3.676638248000e+005 3.696880156147e+005 3.696296635193e+005 3.719927966577e+005 3.720508384708e+005 3.740715825703e+005 3.762180387142e+005 3.762926198033e+005 3.783318784624e+005 3.802263118563e+005 3.805064067762e+005 3.823826630969e+005 3.832876392071e+005 3.860160207936e+005 3.857906428486e+005 3.857881877376e+005 3.857918608157e+005 3.857905405285e+005 3.857885596760e+005 3.857892902161e+005 3.857894551595e+005 3.857880937554e+005 3.857887536842e+005 3.857901213726e+005 3.857902743637e+005 3.857874359479e+005 3.857883973523e+005 0.000000000000e+000 3.783077029862e+005 0.000000000000e+000 0.000000000000e+000 5.187837963276e+004 1.352574811134e+005 1.795982979844e+005 3.613414220517e+005 2.087956634223e+005 3.491543340055e+005 3.386190047421e+005 3.263249706613e+005 3.062090828026e+005 2.906610257037e+005 2.748263392435e+005 2.555682840923e+005 2.352139509014e+005 3.698771073545e+005 3.161523210058e+005 2.208360706395e+005 2.238556125956e+005 2.452557911027e+005 2.659297374013e+005 2.822881729575e+005 2.985757164295e+005 0.000000000000e+000 0.000000000000e+000 1.020540155913e+005 2.985721597772e+005 2.824731170664e+005 2.657793815252e+005 2.448948456770e+005 1.579758063115e+005 1.941356986960e+005 3.554641010038e+005 3.448285951718e+005 3.329928912193e+005 1.940736795516e+005 1.581437882378e+005 1.032440134653e+005 0.000000000000e+000 0.000000000000e+000 3.330916600994e+005 3.447567815362e+005 3.554412781862e+005 0.000000000000e+000 0.000000000000e+000 3.191938201307e+005 3.115273511022e+005 3.738844100424e+005 3.651393790018e+005 0.000000000000e+000 3.805008745549e+005 0.000000000000e+000 3.805085666907e+005 3.736426201033e+005 3.651862898589e+005 3.220572123674e+005 3.107371045186e+005 0.000000000000e+000 2.352035970354e+005 0.000000000000e+000 2.555624751418e+005 2.748172369051e+005 2.906462061090e+005 3.058332756063e+005 2.088463340969e+005 5.022453857855e+004 1.343659454155e+005 1.795552018967e+005 3.491929816354e+005 3.386877824462e+005 2.097804164660e+005 1.797116659695e+005 1.351792801484e+005 5.078724294229e+004 2.906607765002e+005 2.748121951760e+005 2.555848727073e+005 0.000000000000e+000 2.351930189761e+005 0.000000000000e+000 3.263927362184e+005 3.386434712523e+005 3.491864651319e+005 3.613435088116e+005 0.000000000000e+000 0.000000000000e+000 3.762910365712e+005 3.609704823412e+005 3.024125415072e+005 3.285922756439e+005 0.000000000000e+000 3.824370329175e+005 3.698628461430e+005 3.782718494853e+005 3.698790117840e+005 3.162035925652e+005 3.216669183980e+005 3.112251535328e+005 3.740644903899e+005 3.651065974673e+005 3.161243351659e+005 0.000000000000e+000 9.301599819708e+004 0.000000000000e+000 1.552039318578e+005 0.000000000000e+000 1.902120691213e+005 2.441619895233e+005 2.791486782302e+005 2.945912779050e+005 2.626829799609e+005 3.548465313174e+005 3.332886836248e+005 3.447933955269e+005 2.244649808712e+005 3.161568032250e+005 0.000000000000e+000 3.832749023324e+005 0.000000000000e+000 3.832700393687e+005 2.396328936749e+005 2.598161499423e+005 2.791861201327e+005 2.941009265077e+005 2.019689807640e+005 2.279625893275e+005 2.166736557815e+005 1.690644696502e+005 3.292986868457e+005 1.169013230773e+005 3.425601741908e+005 0.000000000000e+000 3.519739704929e+005 0.000000000000e+000 0.000000000000e+000 0.000000000000e+000 0.000000000000e+000 0.000000000000e+000 1.177111617460e+005 8.689096827137e+004 1.692055560741e+005 1.517841228101e+005 3.519113302829e+005 1.906434821875e+005 2.019875362783e+005 3.425130305742e+005 3.454729272274e+005 2.940875812138e+005 2.791639640002e+005 2.597365253412e+005 2.856237628346e+005 2.669312540269e+005 2.435663897870e+005 2.481795523911e+005 3.333927945269e+005 2.166558673783e+005 2.277052738784e+005 0.000000000000e+000 3.578107359553e+005 0.000000000000e+000 3.453996695863e+005 8.890677917205e+004 3.334758890365e+005 1.511879261064e+005 3.014471203669e+005 2.857552520697e+005 2.670684348824e+005 2.513482765061e+005 1.907968154960e+005 3.698581221651e+005 0.000000000000e+000 0.000000000000e+000 3.105786667673e+005 3.246163880800e+005 3.649545867427e+005 2.167715798790e+005 2.669143629072e+005 2.481271895546e+005 2.855791658038e+005 3.014276328433e+005 3.577814138101e+005 3.426121661763e+005 0.000000000000e+000 3.293316057139e+005 0.000000000000e+000 1.183514709461e+005 2.018505394211e+005 1.652925042692e+005 3.576477994957e+005 0.000000000000e+000 0.000000000000e+000 3.147416747871e+005 3.740562058696e+005 0.000000000000e+000 2.164667431536e+005 2.053409417911e+005 1.726629588968e+005 3.289183539205e+005 1.233198417767e+005 3.419934976223e+005 2.860625192491e+005 2.692363969320e+005 2.521329625447e+005 0.000000000000e+000 3.579766604840e+005 0.000000000000e+000 3.674404655641e+005 3.016685255026e+005 0.000000000000e+000 0.000000000000e+000 0.000000000000e+000 2.989283356924e+005 3.323559549107e+005 3.070446458701e+005 3.253134586177e+005 3.802339534976e+005 3.617197498277e+005 3.761866809541e+005 3.719245790548e+005 3.617143938862e+005 2.382668361930e+005 2.596912311061e+005 2.785737468192e+005 2.936878075093e+005 5.571808927711e+003 3.516913456773e+005 0.000000000000e+000 2.281848348384e+005 1.871568488117e+005 8.911219389272e+003 1.448434557749e+005 0.000000000000e+000 7.752023296738e+004 2.388202535085e+005 2.597076000716e+005 2.785107661782e+005 2.936329142697e+005 3.516263108862e+005 3.357161359895e+005 3.484935079050e+005 3.484926746545e+005 7.670776154650e+004 3.352963680540e+005 1.448591202415e+005 1.870709603748e+005 2.281612907815e+005 0.000000000000e+000 0.000000000000e+000 3.832723100797e+005 3.832785724890e+005 0.000000000000e+000 3.797935484519e+005 0.000000000000e+000 0.000000000000e+000 3.783725971117e+005 0.000000000000e+000 3.762039038051e+005 3.798052200667e+005 3.255004433052e+005 3.064546413743e+005 3.611590702661e+005 3.761114315608e+005 3.261114116917e+005 3.675506847477e+005 3.676926898079e+005 3.064673107585e+005 3.718211237373e+005 3.216126993176e+005 3.148771664522e+005 3.719819071125e+005 3.423165947473e+005 2.015386745397e+005 1.684842697419e+005 1.205127084399e+005 0.000000000000e+000 0.000000000000e+000 2.169050355866e+005 3.016954458228e+005 2.854417878136e+005 2.697060524660e+005 2.517874324384e+005 3.190008605973e+005 3.676288718606e+005 3.117793637946e+005 3.185770639996e+005 0.000000000000e+000 0.000000000000e+000 3.575298065358e+005 3.317289246967e+005 3.784030193529e+005 3.804585032094e+005 0.000000000000e+000 3.718780502978e+005 2.353303591216e+005 2.585631109827e+005 2.754167918836e+005 2.904666515502e+005 2.091919868335e+005 2.095902725930e+005 2.316524808836e+005 1.749814992346e+005 1.326757875781e+005 3.264493986041e+005 3.730698614201e+004 3.387974491809e+005 0.000000000000e+000 3.512062542173e+005 0.000000000000e+000 0.000000000000e+000 3.693614896417e+004 1.326110686325e+005 1.761136149948e+005 3.512221941091e+005 3.388069447440e+005 2.904397474306e+005 2.754278770659e+005 2.585736436250e+005 0.000000000000e+000 3.609633617656e+005 3.025131858171e+005 0.000000000000e+000 0.000000000000e+000 0.000000000000e+000 3.581800777838e+005 3.618179724016e+005 3.761898341652e+005 3.151703105447e+005 0.000000000000e+000 0.000000000000e+000 1.083143602080e+005 1.615992350376e+005 1.983203610508e+005 3.555279893211e+005 3.427040065715e+005 3.326238350113e+005 2.453036695264e+005 2.824845006307e+005 2.989984725557e+005 2.665459586010e+005 2.205016354595e+005 0.000000000000e+000 0.000000000000e+000 0.000000000000e+000 0.000000000000e+000 1.356862372767e+005 1.794446824646e+005 3.387146470445e+005 2.904936363366e+005 2.745098667657e+005 2.553634239227e+005 3.826577920906e+005 3.186465790917e+005 2.095237726596e+005 2.092113691874e+005 3.058507762867e+005 0.000000000000e+000 3.858582382063e+005 3.289284086236e+005 3.014200826085e+005 1.941896932280e+005 1.582230937450e+005 1.032991001439e+005 0.000000000000e+000 0.000000000000e+000 3.330381475854e+005 3.447386884082e+005 3.554525791965e+005 2.659280852288e+005 2.452632889728e+005 2.985744572147e+005 2.823647652202e+005 0.000000000000e+000 0.000000000000e+000 2.823646611363e+005 2.659116739616e+005 1.032491171961e+005 2.452661287499e+005 1.581740526683e+005 1.941117878997e+005 3.447627585949e+005 2.208042097508e+005 2.208622768000e+005 3.674175086434e+005 3.225107402002e+005 3.696371527907e+005 2.993920959847e+005 3.159603195262e+005 0.000000000000e+000 0.000000000000e+000 3.109898058773e+005 3.075016873402e+005 3.155905218961e+005 2.049737601335e+005 2.358095810538e+005 2.317665695234e+005 2.123141119087e+005 2.518888241094e+005 2.703618387822e+005 2.896356464009e+005 1.823707035693e+005 3.489143519792e+005 3.380172929912e+005 0.000000000000e+000 6.859837519119e+004 1.415489415120e+005 0.000000000000e+000 3.489119955406e+005 6.865872644530e+004 3.380143033535e+005 2.896363654028e+005 2.703416146457e+005 2.522721865558e+005 1.415546351030e+005 1.823756048538e+005 3.827529623236e+005 3.760656977468e+005 0.000000000000e+000 3.827455786675e+005 2.351644466346e+005 2.352576616014e+005 3.491974434197e+005 3.492018069862e+005 4.975306651016e+004 5.023067020427e+004 0.000000000000e+000 3.717812935314e+005 3.783046123050e+005 3.609464538771e+005 3.698896301056e+005 0.000000000000e+000 3.858616459162e+005 0.000000000000e+000 3.858595161352e+005 3.739043114319e+005 0.000000000000e+000 0.000000000000e+000 1.797444119760e+005 1.352047703792e+005 3.386386896553e+005 2.554541335231e+005 2.906992923107e+005 2.748665560868e+005 0.000000000000e+000 3.652443634392e+005 3.652024000054e+005 3.762051005135e+005 3.068417293232e+005 3.256589731299e+005 3.762250870462e+005 3.615605916796e+005 3.553501032518e+005 3.217594730644e+005 3.646945378644e+005 0.000000000000e+000 0.000000000000e+000 3.246890587734e+005 3.072510647371e+005 0.000000000000e+000 3.265605469012e+005 3.071107549079e+005 3.110657090607e+005 0.000000000000e+000 3.578067663528e+005 0.000000000000e+000 2.860590595615e+005 2.692514357571e+005 2.521274393281e+005 2.132589144833e+005 3.425394615914e+005 1.169696626279e+005 3.316582124350e+005 1.691227425963e+005 2.054485897813e+005 0.000000000000e+000 3.676808546070e+005 3.118674727870e+005 3.184395746391e+005 3.264073745512e+005 3.720155541171e+005 0.000000000000e+000 3.858630764045e+005 0.000000000000e+000 3.860029764223e+005 3.784410713579e+005 3.613223647047e+005 3.162486865581e+005 3.217432714430e+005 0.000000000000e+000 3.332894480879e+005 2.981827806709e+005 3.652131344917e+005 3.067702323334e+005 3.697480662731e+005 1.906955672555e+005 1.506643804242e+005 8.781305843340e+004 3.335277539514e+005 3.454728418777e+005 7.577295131896e+004 0.000000000000e+000 1.447450990244e+005 1.107208458569e+004 1.869521819414e+005 3.485289373141e+005 3.353345582802e+005 3.511293432142e+005 2.935906539583e+005 2.595961073785e+005 2.758765124796e+005 2.390137059090e+005 0.000000000000e+000 0.000000000000e+000 3.519341880117e+005 2.278016973394e+005 2.941744718092e+005 2.792701623283e+005 2.598845333135e+005 2.435927481776e+005 2.282533242571e+005 2.208375384456e+005 2.452558670616e+005 2.823655336920e+005 2.659395935025e+005 2.985779814287e+005 0.000000000000e+000 0.000000000000e+000 1.032078235338e+005 1.941326047451e+005 1.581371424268e+005 3.554454061703e+005 3.447623839503e+005 3.330663953891e+005 3.257160360630e+005 3.617019695724e+005 0.000000000000e+000 3.784348176911e+005 2.283951819787e+005 2.388797976600e+005 2.594954058668e+005 2.782958999319e+005 2.934775635878e+005 1.643978207651e+004 0.000000000000e+000 3.510309533917e+005 7.408636257165e+004 1.446107841634e+005 1.868059241012e+005 3.487217995459e+005 3.353780363499e+005 3.158196185213e+005 0.000000000000e+000 3.187105296341e+005 0.000000000000e+000 2.239911662532e+005 2.207338384191e+005 2.450518495475e+005 2.656139054128e+005 2.821310406803e+005 2.982560720595e+005 0.000000000000e+000 0.000000000000e+000 1.046050345567e+005 1.619727281397e+005 1.936845932286e+005 3.446516224977e+005 1.942538747459e+005 2.822378822965e+005 2.635731638882e+005 2.451048763240e+005 1.582713998301e+005 1.033430360422e+005 3.330034432765e+005 0.000000000000e+000 3.447166115872e+005 0.000000000000e+000 3.554495201254e+005 3.698775609251e+005 0.000000000000e+000 3.550554933517e+005 0.000000000000e+000 2.791990306494e+005 2.442277605952e+005 2.625680163412e+005 2.946290590058e+005 3.446848169383e+005 9.412137894014e+004 3.329941259463e+005 1.539917498103e+005 1.904434212028e+005 2.242521117379e+005 3.783432850205e+005 0.000000000000e+000 3.858630365007e+005 0.000000000000e+000 0.000000000000e+000 0.000000000000e+000 3.188690443034e+005 3.120269954471e+005 3.653609160650e+005 3.553866123582e+005 0.000000000000e+000 3.779509713755e+005 0.000000000000e+000 0.000000000000e+000 3.614746735438e+005 2.055199134001e+005 1.727995432768e+005 3.290186048192e+005 1.268328814048e+005 3.419339586249e+005 2.520376532944e+005 2.692433263859e+005 2.859881121128e+005 2.132743428782e+005 0.000000000000e+000 3.580638931902e+005 0.000000000000e+000 3.264225699060e+005 3.059194304353e+005 3.191213446716e+005 3.740280435539e+005 3.761863623662e+005 0.000000000000e+000 3.824657830303e+005 0.000000000000e+000 3.824659814208e+005 2.981317035142e+005 3.332723259485e+005 3.014313514852e+005 3.719085621377e+005 0.000000000000e+000 3.826668787673e+005 3.221177978015e+005 3.114533119900e+005 3.192241437535e+005 3.653835171533e+005 3.739258065847e+005 3.697247084714e+005 3.294353745200e+005 3.739317313116e+005 3.677251290475e+005 3.190151332617e+005 3.763002921617e+005 3.741144520513e+005 3.157095025787e+005 3.250850237002e+005 3.112749350205e+005 3.218344662436e+005 0.000000000000e+000 3.802321787422e+005 3.579263398944e+005 2.204364948604e+005 2.123835901794e+005 0.000000000000e+000 0.000000000000e+000 0.000000000000e+000 0.000000000000e+000 1.234152082399e+005 1.727440703754e+005 3.419503798844e+005 1.977453087628e+005 2.049106655941e+005 2.990046056126e+005 3.015547037079e+005 2.852255773315e+005 2.895707723979e+005 2.702673777261e+005 2.661244904253e+005 2.485186983887e+005 2.525843800003e+005 3.804929231086e+005 0.000000000000e+000 0.000000000000e+000 0.000000000000e+000 0.000000000000e+000 3.827788567766e+005 0.000000000000e+000 2.394555100570e+005 2.596746365061e+005 2.790730416063e+005 2.934119205427e+005 2.279701733359e+005 2.162165961905e+005 2.021086931241e+005 1.692830765605e+005 3.292007187093e+005 1.177707728493e+005 3.424773876334e+005 0.000000000000e+000 3.519025686746e+005 0.000000000000e+000 0.000000000000e+000 0.000000000000e+000 0.000000000000e+000 1.177923809366e+005 1.69281