<?xml version="1.0"?>
<VTKFile type="UnstructuredGrid" version="0.1" byte_order="LittleEndian">
  <UnstructuredGrid>
    <Piece NumberOfPoints="2604" NumberOfCells="4910">
      <Points>
        <DataArray type="Float64" NumberOfComponents="3" format="ascii">
          0.000000000000e+000 0.000000000000e+000 0.000000000000e+000
          2.000000000000e+002 0.000000000000e+000 0.000000000000e+000
          2.000000000000e+002 2.000000000000e+001 0.000000000000e+000
          0.000000000000e+000 2.000000000000e+001 0.000000000000e+000
          1.492537313427e+000 0.000000000000e+000 0.000000000000e+000
          2.985074626854e+000 0.000000000000e+000 0.000000000000e+000
          4.477611940281e+000 0.000000000000e+000 0.000000000000e+000
          5.970149253708e+000 0.000000000000e+000 0.000000000000e+000
          7.462686567135e+000 0.000000000000e+000 0.000000000000e+000
          8.955223880561e+000 0.000000000000e+000 0.000000000000e+000
          1.044776119399e+001 0.000000000000e+000 0.000000000000e+000
          1.194029850741e+001 0.000000000000e+000 0.000000000000e+000
          1.343283582084e+001 0.000000000000e+000 0.000000000000e+000
          1.492537313427e+001 0.000000000000e+000 0.000000000000e+000
          1.641791044770e+001 0.000000000000e+000 0.000000000000e+000
          1.791044776112e+001 0.000000000000e+000 0.000000000000e+000
          1.940298507455e+001 0.000000000000e+000 0.000000000000e+000
          2.089552238798e+001 0.000000000000e+000 0.000000000000e+000
          2.238805970141e+001 0.000000000000e+000 0.000000000000e+000
          2.388059701484e+001 0.000000000000e+000 0.000000000000e+000
          2.537313432826e+001 0.000000000000e+000 0.000000000000e+000
          2.686567164169e+001 0.000000000000e+000 0.000000000000e+000
          2.835820895511e+001 0.000000000000e+000 0.000000000000e+000
          2.985074626854e+001 0.000000000000e+000 0.000000000000e+000
          3.134328358196e+001 0.000000000000e+000 0.000000000000e+000
          3.283582089539e+001 0.000000000000e+000 0.000000000000e+000
          3.432835820881e+001 0.000000000000e+000 0.000000000000e+000
          3.582089552224e+001 0.000000000000e+000 0.000000000000e+000
          3.731343283566e+001 0.000000000000e+000 0.000000000000e+000
          3.880597014909e+001 0.000000000000e+000 0.000000000000e+000
          4.029850746251e+001 0.000000000000e+000 0.000000000000e+000
          4.179104477594e+001 0.000000000000e+000 0.000000000000e+000
          4.328358208936e+001 0.000000000000e+000 0.000000000000e+000
          4.477611940279e+001 0.000000000000e+000 0.000000000000e+000
          4.626865671621e+001 0.000000000000e+000 0.000000000000e+000
          4.776119402964e+001 0.000000000000e+000 0.000000000000e+000
          4.925373134306e+001 0.000000000000e+000 0.000000000000e+000
          5.074626865649e+001 0.000000000000e+000 0.000000000000e+000
          5.223880596991e+001 0.000000000000e+000 0.000000000000e+000
          5.373134328334e+001 0.000000000000e+000 0.000000000000e+000
          5.522388059676e+001 0.000000000000e+000 0.000000000000e+000
          5.671641791019e+001 0.000000000000e+000 0.000000000000e+000
          5.820895522361e+001 0.000000000000e+000 0.000000000000e+000
          5.970149253704e+001 0.000000000000e+000 0.000000000000e+000
          6.119402985046e+001 0.000000000000e+000 0.000000000000e+000
          6.268656716389e+001 0.000000000000e+000 0.000000000000e+000
          6.417910447732e+001 0.000000000000e+000 0.000000000000e+000
          6.567164179075e+001 0.000000000000e+000 0.000000000000e+000
          6.716417910418e+001 0.000000000000e+000 0.000000000000e+000
          6.865671641761e+001 0.000000000000e+000 0.000000000000e+000
          7.014925373104e+001 0.000000000000e+000 0.000000000000e+000
          7.164179104447e+001 0.000000000000e+000 0.000000000000e+000
          7.313432835790e+001 0.000000000000e+000 0.000000000000e+000
          7.462686567133e+001 0.000000000000e+000 0.000000000000e+000
          7.611940298476e+001 0.000000000000e+000 0.000000000000e+000
          7.761194029819e+001 0.000000000000e+000 0.000000000000e+000
          7.910447761162e+001 0.000000000000e+000 0.000000000000e+000
          8.059701492505e+001 0.000000000000e+000 0.000000000000e+000
          8.208955223848e+001 0.000000000000e+000 0.000000000000e+000
          8.358208955191e+001 0.000000000000e+000 0.000000000000e+000
          8.507462686534e+001 0.000000000000e+000 0.000000000000e+000
          8.656716417877e+001 0.000000000000e+000 0.000000000000e+000
          8.805970149220e+001 0.000000000000e+000 0.000000000000e+000
          8.955223880563e+001 0.000000000000e+000 0.000000000000e+000
          9.104477611907e+001 0.000000000000e+000 0.000000000000e+000
          9.253731343250e+001 0.000000000000e+000 0.000000000000e+000
          9.402985074593e+001 0.000000000000e+000 0.000000000000e+000
          9.552238805936e+001 0.000000000000e+000 0.000000000000e+000
          9.701492537279e+001 0.000000000000e+000 0.000000000000e+000
          9.850746268622e+001 0.000000000000e+000 0.000000000000e+000
          9.999999999965e+001 0.000000000000e+000 0.000000000000e+000
          1.014925373131e+002 0.000000000000e+000 0.000000000000e+000
          1.029850746265e+002 0.000000000000e+000 0.000000000000e+000
          1.044776119399e+002 0.000000000000e+000 0.000000000000e+000
          1.059701492534e+002 0.000000000000e+000 0.000000000000e+000
          1.074626865668e+002 0.000000000000e+000 0.000000000000e+000
          1.089552238802e+002 0.000000000000e+000 0.000000000000e+000
          1.104477611937e+002 0.000000000000e+000 0.000000000000e+000
          1.119402985071e+002 0.000000000000e+000 0.000000000000e+000
          1.134328358205e+002 0.000000000000e+000 0.000000000000e+000
          1.149253731340e+002 0.000000000000e+000 0.000000000000e+000
          1.164179104474e+002 0.000000000000e+000 0.000000000000e+000
          1.179104477608e+002 0.000000000000e+000 0.000000000000e+000
          1.194029850742e+002 0.000000000000e+000 0.000000000000e+000
          1.208955223877e+002 0.000000000000e+000 0.000000000000e+000
          1.223880597011e+002 0.000000000000e+000 0.000000000000e+000
          1.238805970145e+002 0.000000000000e+000 0.000000000000e+000
          1.253731343280e+002 0.000000000000e+000 0.000000000000e+000
          1.268656716414e+002 0.000000000000e+000 0.000000000000e+000
          1.283582089548e+002 0.000000000000e+000 0.000000000000e+000
          1.298507462683e+002 0.000000000000e+000 0.000000000000e+000
          1.313432835817e+002 0.000000000000e+000 0.000000000000e+000
          1.328358208952e+002 0.000000000000e+000 0.000000000000e+000
          1.343283582086e+002 0.000000000000e+000 0.000000000000e+000
          1.358208955220e+002 0.000000000000e+000 0.000000000000e+000
          1.373134328355e+002 0.000000000000e+000 0.000000000000e+000
          1.388059701489e+002 0.000000000000e+000 0.000000000000e+000
          1.402985074624e+002 0.000000000000e+000 0.000000000000e+000
          1.417910447758e+002 0.000000000000e+000 0.000000000000e+000
          1.432835820892e+002 0.000000000000e+000 0.000000000000e+000
          1.447761194027e+002 0.000000000000e+000 0.000000000000e+000
          1.462686567161e+002 0.000000000000e+000 0.000000000000e+000
          1.477611940296e+002 0.000000000000e+000 0.000000000000e+000
          1.492537313430e+002 0.000000000000e+000 0.000000000000e+000
          1.507462686564e+002 0.000000000000e+000 0.000000000000e+000
          1.522388059699e+002 0.000000000000e+000 0.000000000000e+000
          1.537313432833e+002 0.000000000000e+000 0.000000000000e+000
          1.552238805968e+002 0.000000000000e+000 0.000000000000e+000
          1.567164179102e+002 0.000000000000e+000 0.000000000000e+000
          1.582089552237e+002 0.000000000000e+000 0.000000000000e+000
          1.597014925371e+002 0.000000000000e+000 0.000000000000e+000
          1.611940298505e+002 0.000000000000e+000 0.000000000000e+000
          1.626865671640e+002 0.000000000000e+000 0.000000000000e+000
          1.641791044774e+002 0.000000000000e+000 0.000000000000e+000
          1.656716417909e+002 0.000000000000e+000 0.000000000000e+000
          1.671641791043e+002 0.000000000000e+000 0.000000000000e+000
          1.686567164177e+002 0.000000000000e+000 0.000000000000e+000
          1.701492537312e+002 0.000000000000e+000 0.000000000000e+000
          1.716417910446e+002 0.000000000000e+000 0.000000000000e+000
          1.731343283581e+002 0.000000000000e+000 0.000000000000e+000
          1.746268656715e+002 0.000000000000e+000 0.000000000000e+000
          1.761194029849e+002 0.000000000000e+000 0.000000000000e+000
          1.776119402984e+002 0.000000000000e+000 0.000000000000e+000
          1.791044776118e+002 0.000000000000e+000 0.000000000000e+000
          1.805970149253e+002 0.000000000000e+000 0.000000000000e+000
          1.820895522387e+002 0.000000000000e+000 0.000000000000e+000
          1.835820895521e+002 0.000000000000e+000 0.000000000000e+000
          1.850746268656e+002 0.000000000000e+000 0.000000000000e+000
          1.865671641790e+002 0.000000000000e+000 0.000000000000e+000
          1.880597014925e+002 0.000000000000e+000 0.000000000000e+000
          1.895522388059e+002 0.000000000000e+000 0.000000000000e+000
          1.910447761194e+002 0.000000000000e+000 0.000000000000e+000
          1.925373134328e+002 0.000000000000e+000 0.000000000000e+000
          1.940298507462e+002 0.000000000000e+000 0.000000000000e+000
          1.955223880597e+002 0.000000000000e+000 0.000000000000e+000
          1.970149253731e+002 0.000000000000e+000 0.000000000000e+000
          1.985074626866e+002 0.000000000000e+000 0.000000000000e+000
          2.000000000000e+002 1.428571428570e+000 0.000000000000e+000
          2.000000000000e+002 2.857142857140e+000 0.000000000000e+000
[...]
      <PointData Scalars="Capillary_Pressure">
        <DataArray type="Float64" Name="Capillary_Pressure" format="ascii">
          3.061289638857e+005 0.000000000000e+000 0.000000000000e+000 3.061326481929e+005 3.064840154492e+005 3.026359219689e+005 3.015927070844e+005 2.989803200898e+005 2.986603241355e+005 2.961148111586e+005 2.934593039477e+005 2.934023667382e+005 2.906104086505e+005 2.906216230248e+005 2.881367440623e+005 2.850392833727e+005 2.853066578053e+005 2.827766245343e+005 2.825083227394e+005 2.797838820014e+005 2.752262103630e+005 2.753645110325e+005 2.749357679293e+005 2.709704803518e+005 2.709461851533e+005 2.682039756838e+005 2.677974828868e+005 2.636691741209e+005 2.635069132248e+005 2.609817078059e+005 2.607125473583e+005 2.564147630434e+005 2.563389763616e+005 2.539979810271e+005 2.537166525058e+005 2.487515873066e+005 2.495354211243e+005 2.463524614721e+005 2.433183273036e+005 2.438396068774e+005 2.435502219368e+005 2.394072755032e+005 2.363476256533e+005 2.365582063557e+005 2.316960459229e+005 2.320321661742e+005 2.284907684699e+005 2.289161567062e+005 2.260683465599e+005 2.256505155519e+005 2.204029496216e+005 2.211601018365e+005 2.159460165566e+005 2.163727374180e+005 2.110358264589e+005 2.100966152132e+005 2.078091222882e+005 2.084233599723e+005 2.079700213640e+005 2.030928337140e+005 1.988021982399e+005 1.998696609696e+005 1.944846266742e+005 1.947489181736e+005 1.913091614313e+005 1.869786248026e+005 1.833751952314e+005 1.840272023791e+005 1.774591690327e+005 1.765194734642e+005 1.734701860814e+005 1.694732567005e+005 1.701002125941e+005 1.665744045392e+005 1.614859035332e+005 1.569511143006e+005 1.582776465824e+005 1.535010704973e+005 1.493013342342e+005 1.491165180675e+005 1.393259797473e+005 1.347538274922e+005 1.304134750455e+005 1.249137632803e+005 1.193631476439e+005 1.131498722999e+005 1.147225043724e+005 1.089623869882e+005 1.020265617832e+005 9.561013179225e+004 7.671151692193e+004 6.757160888250e+004 5.721567439316e+004 4.331817678348e+004 3.701888493417e+004 2.050018960754e+001 0.000000000000e+000 0.000000000000e+000 0.000000000000e+000 0.000000000000e+000 0.000000000000e+000 0.000000000000e+000 0.000000000000e+000 0.000000000000e+000 0.000000000000e+000 0.000000000000e+000 0.000000000000e+000 0.000000000000e+000 0.000000000000e+000 0.000000000000e+000 0.000000000000e+000 0.000000000000e+000 0.000000000000e+000 0.000000000000e+000 0.000000000000e+000 0.000000000000e+000 0.000000000000e+000 0.000000000000e+000 0.000000000000e+000 0.000000000000e+000 0.000000000000e+000 0.000000000000e+000 0.000000000000e+000 0.000000000000e+000 0.000000000000e+000 0.000000000000e+000 0.000000000000e+000 0.000000000000e+000 0.000000000000e+000 0.000000000000e+000 0.000000000000e+000 0.000000000000e+000 0.000000000000e+000 0.000000000000e+000 0.000000000000e+000 0.000000000000e+000 0.000000000000e+000 0.000000000000e+000 0.000000000000e+000 0.000000000000e+000 0.000000000000e+000 0.000000000000e+000 0.000000000000e+000 0.000000000000e+000 0.000000000000e+000 0.000000000000e+000 0.000000000000e+000 0.000000000000e+000 0.000000000000e+000 0.000000000000e+000 0.000000000000e+000 0.000000000000e+000 0.000000000000e+000 0.000000000000e+000 0.000000000000e+000 0.000000000000e+000 0.000000000000e+000 0.000000000000e+000 0.000000000000e+000 0.000000000000e+000 0.000000000000e+000 0.000000000000e+000 0.000000000000e+000 0.000000000000e+000 0.000000000000e+000 0.000000000000e+000 0.000000000000e+000 0.000000000000e+000 0.000000000000e+000 0.000000000000e+000 0.000000000000e+000 0.000000000000e+000 0.000000000000e+000 0.000000000000e+000 0.000000000000e+000 0.000000000000e+000 0.000000000000e+000 0.000000000000e+000 0.000000000000e+000 0.000000000000e+000 0.000000000000e+000 0.000000000000e+000 0.000000000000e+000 0.000000000000e+000 0.000000000000e+000 0.000000000000e+000 0.000000000000e+000 0.000000000000e+000 0.000000000000e+000 0.000000000000e+000 0.000000000000e+000 2.116855817849e+001 3.696228124791e+004 4.327143555808e+004 5.713200958817e+004 6.748762613156e+004 7.665891633797e+004 9.564750063844e+004 1.019597229464e+005 1.088163881141e+005 1.146504325674e+005 1.131375985899e+005 1.193487141790e+005 1.248821794309e+005 1.304561546810e+005 1.347425819414e+005 1.392995402026e+005 1.490829611153e+005 1.492807593977e+005 1.535545620572e+005 1.582935398207e+005 1.569190647741e+005 1.614771562871e+005 1.665656473479e+005 1.701501263008e+005 1.743621137002e+005 1.734133490481e+005 1.765177280835e+005 1.773944387138e+005 1.840435377815e+005 1.879783850119e+005 1.871013574091e+005 1.911573729325e+005 1.947452423492e+005 1.944798231454e+005 1.998764743583e+005 1.988196398489e+005 2.031709419110e+005 2.079738169793e+005 2.084427492741e+005 2.078713430479e+005 2.101394970879e+005 2.161458993806e+005 2.163917927698e+005 2.159134886645e+005 2.211687517941e+005 2.203671528494e+005 2.256410809722e+005 2.260484249049e+005 2.288687547517e+005 2.283845658630e+005 2.319614362597e+005 2.362392251447e+005 2.365510614277e+005 2.362049686644e+005 2.394242895083e+005 2.434910996215e+005 2.438505396849e+005 2.433158694747e+005 2.462764079781e+005 2.495434554748e+005 2.487495786945e+005 2.537365349316e+005 2.539761081459e+005 2.563271868383e+005 2.564010349523e+005 2.607303554332e+005 2.609769018094e+005 2.635096176705e+005 2.636349922203e+005 2.678239189547e+005 2.681854725115e+005 2.709194196284e+005 2.709795502965e+005 2.749361266470e+005 2.753361252859e+005 2.752083487933e+005 2.797835367381e+005 2.824935707374e+005 2.827525228383e+005 2.853078306424e+005 2.851855073178e+005 2.879449291149e+005 2.879563166652e+005 2.905297386542e+005 2.934745465107e+005 2.933455114472e+005 2.961632054298e+005 2.986494199498e+005 2.989705375466e+005 3.015451744425e+005 3.026645304698e+005 3.064750019571e+005 3.061311854129e+005 3.061325701892e+005 3.061239783172e+005 3.061307756422e+005 3.061343783841e+005 3.061315939964e+005 3.061290121031e+005 3.061238306906e+005 3.061252882427e+005 3.061271234876e+005 3.061227355631e+005 3.061300210102e+005 3.061297224905e+005 0.000000000000e+000 2.961578262938e+005 0.000000000000e+000 0.000000000000e+000 0.000000000000e+000 0.000000000000e+000 0.000000000000e+000 2.752533720781e+005 9.245911371884e+004 2.607445286585e+005 2.495976275819e+005 2.365759229662e+005 2.163764662729e+005 2.001773949509e+005 1.840518097108e+005 1.619708830475e+005 1.367168038156e+005 2.854570528687e+005 2.260327374752e+005 1.132137661158e+005 1.205552025044e+005 1.492746905396e+005 1.744439495507e+005 1.911166302480e+005 2.084350120869e+005 0.000000000000e+000 0.000000000000e+000 0.000000000000e+000 2.084392624590e+005 1.911978345412e+005 1.742563566968e+005 1.479681276041e+005 0.000000000000e+000 5.705209942444e+004 2.681918952106e+005 2.563493597196e+005 2.438215321460e+005 5.717610416750e+004 0.000000000000e+000 0.000000000000e+000 0.000000000000e+000 0.000000000000e+000 2.438874640993e+005 2.563393802991e+005 2.681987506089e+005 0.000000000000e+000 0.000000000000e+000 2.284095941231e+005 2.211481698060e+005 2.905127112119e+005 2.796803450249e+005 0.000000000000e+000 2.989401947714e+005 0.000000000000e+000 2.989779887251e+005 2.901590204075e+005 2.797820923016e+005 2.320206407230e+005 2.209560386203e+005 0.000000000000e+000 1.367208611959e+005 0.000000000000e+000 1.618718320600e+005 1.840752995147e+005 2.002090400092e+005 2.161283367450e+005 9.248338748226e+004 0.000000000000e+000 0.000000000000e+000 0.000000000000e+000 2.607399126031e+005 2.495700403766e+005 9.534060427804e+004 0.000000000000e+000 0.000000000000e+000 0.000000000000e+000 2.001797561561e+005 1.840575108349e+005 1.618996717351e+005 0.000000000000e+000 1.366733769370e+005 0.000000000000e+000 2.365886242457e+005 2.495359533456e+005 2.607106468880e+005 2.752680441304e+005 0.000000000000e+000 0.000000000000e+000 2.933671156680e+005 2.749667475388e+005 2.109907183547e+005 2.393182592507e+005 0.000000000000e+000 3.016348305602e+005 2.854563399320e+005 2.961174596447e+005 2.854818909018e+005 2.252706113555e+005 2.322115810625e+005 2.211701093193e+005 2.906669975672e+005 2.797425765955e+005 2.260456009423e+005 0.000000000000e+000 0.000000000000e+000 0.000000000000e+000 0.000000000000e+000 0.000000000000e+000 4.465881159932e+004 1.490343247201e+005 1.873137115630e+005 2.028678670418e+005 1.702088164257e+005 2.678205786469e+005 2.432950723196e+005 2.557795185262e+005 1.193902505686e+005 2.260426780973e+005 0.000000000000e+000 3.026292524694e+005 0.000000000000e+000 3.026432139387e+005 1.407527966436e+005 1.651725148935e+005 1.879617320407e+005 2.028747946667e+005 7.987468439327e+004 1.262505948902e+005 1.068098452321e+005 0.000000000000e+000 2.391558925559e+005 0.000000000000e+000 2.539656949070e+005 0.000000000000e+000 2.637268607166e+005 0.000000000000e+000 0.000000000000e+000 0.000000000000e+000 0.000000000000e+000 0.000000000000e+000 0.000000000000e+000 0.000000000000e+000 0.000000000000e+000 0.000000000000e+000 2.637369913390e+005 4.982717414512e+004 7.990773191809e+004 2.539595049374e+005 2.564602439395e+005 2.027413936515e+005 1.879743112411e+005 1.653089803529e+005 1.948027301528e+005 1.734437199874e+005 1.491288537161e+005 1.517793209844e+005 2.433453324462e+005 1.069333248679e+005 1.262271994732e+005 0.000000000000e+000 2.710093289929e+005 0.000000000000e+000 2.564365630788e+005 0.000000000000e+000 2.433366176063e+005 0.000000000000e+000 2.111101778000e+005 1.948378568208e+005 1.734138736525e+005 1.581319034927e+005 4.994137386210e+004 2.853822709837e+005 0.000000000000e+000 0.000000000000e+000 2.209450124481e+005 2.359271970351e+005 2.797125310441e+005 1.068542898185e+005 1.734163293475e+005 1.518124432596e+005 1.947620970549e+005 2.111087525414e+005 2.709877111998e+005 2.539278839671e+005 0.000000000000e+000 2.391005691588e+005 0.000000000000e+000 0.000000000000e+000 7.985459481352e+004 0.000000000000e+000 2.708994287132e+005 0.000000000000e+000 0.000000000000e+000 2.256375229027e+005 2.906067186736e+005 0.000000000000e+000 1.088482470268e+005 8.770901872292e+004 0.000000000000e+000 2.393719318530e+005 0.000000000000e+000 2.536516467639e+005 1.944434772846e+005 1.763504213070e+005 1.583053638097e+005 0.000000000000e+000 2.709650935013e+005 0.000000000000e+000 2.825840633439e+005 2.109482349417e+005 0.000000000000e+000 0.000000000000e+000 0.000000000000e+000 2.078219975775e+005 2.433631405316e+005 2.159968150333e+005 2.361870759650e+005 2.987006907390e+005 2.752402539034e+005 2.934075048868e+005 2.879340395806e+005 2.751889435270e+005 1.392969171803e+005 1.665261747737e+005 1.880236797551e+005 2.030890877211e+005 0.000000000000e+000 2.636224796942e+005 0.000000000000e+000 1.248370365719e+005 3.682737878543e+004 0.000000000000e+000 0.000000000000e+000 0.000000000000e+000 0.000000000000e+000 1.407453602126e+005 1.665933284721e+005 1.879838410982e+005 2.031110892836e+005 2.635259429145e+005 2.463118302768e+005 2.606856933699e+005 2.606922448360e+005 0.000000000000e+000 2.455313348026e+005 0.000000000000e+000 3.685586831188e+004 1.249269723394e+005 0.000000000000e+000 0.000000000000e+000 3.026387619355e+005 3.026793478100e+005 0.000000000000e+000 2.980504934097e+005 0.000000000000e+000 0.000000000000e+000 2.961678496856e+005 0.000000000000e+000 2.933564176986e+005 2.980639850763e+005 2.363995144465e+005 2.153911480714e+005 2.745347319366e+005 2.932768180544e+005 2.365465027091e+005 2.826277364604e+005 2.827599444718e+005 2.164110623382e+005 2.878544361405e+005 2.320716196666e+005 2.256273904396e+005 2.880171472491e+005 2.539548222832e+005 7.661388207737e+004 0.000000000000e+000 0.000000000000e+000 0.000000000000e+000 0.000000000000e+000 1.088039216261e+005 2.111455698056e+005 1.938968338957e+005 1.779254477494e+005 1.582655691835e+005 2.289520086861e+005 2.827320181627e+005 2.208240736638e+005 2.279051339908e+005 0.000000000000e+000 0.000000000000e+000 2.704530328196e+005 2.433036609123e+005 2.961829018604e+005 2.988641101156e+005 0.000000000000e+000 2.879035134055e+005 1.355058812936e+005 1.664907615789e+005 1.840259158844e+005 1.987618384581e+005 9.557556332660e+004 9.307032724203e+004 1.303230330025e+005 0.000000000000e+000 0.000000000000e+000 2.362795180583e+005 0.000000000000e+000 2.493244373925e+005 0.000000000000e+000 2.635415329194e+005 0.000000000000e+000 0.000000000000e+000 0.000000000000e+000 0.000000000000e+000 0.000000000000e+000 2.635824237420e+005 2.493268503309e+005 1.987846037877e+005 1.840421955332e+005 1.665107302954e+005 0.000000000000e+000 2.749343694629e+005 2.110048957901e+005 0.000000000000e+000 0.000000000000e+000 0.000000000000e+000 2.709839069517e+005 2.753470059693e+005 2.933332336060e+005 2.256740817765e+005 0.000000000000e+000 0.000000000000e+000 0.000000000000e+000 0.000000000000e+000 7.040803532262e+004 2.680550866794e+005 2.536218662247e+005 2.436134014576e+005 1.479856024134e+005 1.907585840186e+005 2.084100042945e+005 1.741484418167e+005 1.143673342671e+005 0.000000000000e+000 0.000000000000e+000 0.000000000000e+000 0.000000000000e+000 0.000000000000e+000 0.000000000000e+000 2.495681270372e+005 2.002292860773e+005 1.838414258972e+005 1.619060120279e+005 3.019245422437e+005 2.290512325303e+005 9.545242062810e+004 9.284786743661e+004 2.161578483928e+005 0.000000000000e+000 3.062717805117e+005 2.393799133560e+005 2.101443939426e+005 5.715664738824e+004 0.000000000000e+000 0.000000000000e+000 0.000000000000e+000 0.000000000000e+000 2.438622214690e+005 2.563116736833e+005 2.681932039679e+005 1.743859949277e+005 1.492838653229e+005 2.084473536983e+005 1.912635276427e+005 0.000000000000e+000 0.000000000000e+000 1.912523026228e+005 1.743347288514e+005 0.000000000000e+000 1.493074539203e+005 0.000000000000e+000 5.709216618521e+004 2.563156270362e+005 1.131465998231e+005 1.131351570783e+005 2.823687173512e+005 2.318175320408e+005 2.853045138068e+005 2.079058248195e+005 2.260525512919e+005 0.000000000000e+000 0.000000000000e+000 2.210733437910e+005 2.160760772597e+005 2.259146589635e+005 8.443689536075e+004 1.356431423593e+005 1.316032757272e+005 9.915989209921e+004 1.564864943436e+005 1.775735268479e+005 1.998432250979e+005 1.289870924164e+004 2.609589341242e+005 2.493782246524e+005 0.000000000000e+000 0.000000000000e+000 0.000000000000e+000 0.000000000000e+000 2.609514810770e+005 0.000000000000e+000 2.493589290106e+005 1.997794221204e+005 1.775086032498e+005 1.569159667084e+005 0.000000000000e+000 1.297188829315e+004 3.020295005436e+005 2.932611990031e+005 0.000000000000e+000 3.020567632089e+005 1.368127441696e+005 1.366974905503e+005 2.607132357015e+005 2.607504638882e+005 0.000000000000e+000 0.000000000000e+000 0.000000000000e+000 2.878700538754e+005 2.961150301321e+005 2.749340176976e+005 2.855271566236e+005 0.000000000000e+000 3.062762653320e+005 0.000000000000e+000 3.062838072364e+005 2.904518265360e+005 0.000000000000e+000 0.000000000000e+000 0.000000000000e+000 0.000000000000e+000 2.496004818574e+005 1.615837415872e+005 2.001703029295e+005 1.840497995618e+005 0.000000000000e+000 2.797350316196e+005 2.798037320659e+005 2.933812033481e+005 2.163211136121e+005 2.363559024445e+005 2.934394976021e+005 2.751672847347e+005 2.681577572743e+005 2.320649979750e+005 2.794117483153e+005 0.000000000000e+000 0.000000000000e+000 2.358328048198e+005 2.160645442351e+005 0.000000000000e+000 2.363569516114e+005 2.160030046974e+005 2.211246640236e+005 0.000000000000e+000 2.710140710542e+005 0.000000000000e+000 1.944533511310e+005 1.763521621303e+005 1.583197047460e+005 1.004103501205e+005 2.539573324666e+005 0.000000000000e+000 2.430972576388e+005 0.000000000000e+000 8.768059647802e+004 0.000000000000e+000 2.827643664316e+005 2.208609552027e+005 2.287831460175e+005 2.366310429784e+005 2.879116547090e+005 0.000000000000e+000 3.062500437742e+005 0.000000000000e+000 3.064636906439e+005 2.961984135516e+005 2.752579421211e+005 2.260113996339e+005 2.321473741639e+005 0.000000000000e+000 2.438935628192e+005 2.082347841346e+005 2.797933543252e+005 2.163790384822e+005 2.854558702868e+005 4.979319048148e+004 0.000000000000e+000 0.000000000000e+000 2.433286971070e+005 2.565074806471e+005 0.000000000000e+000 0.000000000000e+000 0.000000000000e+000 0.000000000000e+000 3.678272817671e+004 2.607130592957e+005 2.454833706103e+005 2.628174279100e+005 2.031397575880e+005 1.666978609323e+005 1.834268357409e+005 1.413445049646e+005 0.000000000000e+000 0.000000000000e+000 2.636879055655e+005 1.261774141249e+005 2.028740824176e+005 1.879495755571e+005 1.652146170182e+005 1.490721773168e+005 1.248323398562e+005 1.131320703430e+005 1.492968676124e+005 1.913406230665e+005 1.744593108020e+005 2.084291365267e+005 0.000000000000e+000 0.000000000000e+000 0.000000000000e+000 5.711889381964e+004 0.000000000000e+000 2.682077023274e+005 2.562690336903e+005 2.438450514337e+005 2.363670316752e+005 2.752681949806e+005 0.000000000000e+000 2.962470753799e+005 1.249083834243e+005 1.412406367651e+005 1.666403488050e+005 1.879066715247e+005 2.031278226529e+005 0.000000000000e+000 0.000000000000e+000 2.627579586120e+005 0.000000000000e+000 0.000000000000e+000 3.685936677263e+004 2.609206098991e+005 2.455329577377e+005 2.249030784156e+005 0.000000000000e+000 2.289847904364e+005 0.000000000000e+000 1.205838949144e+005 1.131822740545e+005 1.493737833549e+005 1.742665465951e+005 1.911919830145e+005 2.082389078350e+005 0.000000000000e+000 0.000000000000e+000 0.000000000000e+000 0.000000000000e+000 5.600196966953e+004 2.563147936240e+005 5.714925005327e+004 1.913145804436e+005 1.693885003279e+005 1.493092700058e+005 0.000000000000e+000 0.000000000000e+000 2.438905418089e+005 0.000000000000e+000 2.563060529781e+005 0.000000000000e+000 2.681936032592e+005 2.854299454774e+005 0.000000000000e+000 2.680388196606e+005 0.000000000000e+000 1.871767867156e+005 1.490157192202e+005 1.697023572779e+005 2.027605109076e+005 2.557547724159e+005 0.000000000000e+000 2.429210012563e+005 0.000000000000e+000 4.461185903878e+004 1.193581335901e+005 2.961708502492e+005 0.000000000000e+000 3.062528690886e+005 0.000000000000e+000 0.000000000000e+000 0.000000000000e+000 2.290564580409e+005 2.208880338571e+005 2.799219477636e+005 2.681720831403e+005 0.000000000000e+000 2.956357891460e+005 0.000000000000e+000 0.000000000000e+000 2.753251723412e+005 8.775239929773e+004 0.000000000000e+000 2.394110853935e+005 0.000000000000e+000 2.537116784954e+005 1.582987334448e+005 1.763495203867e+005 1.944597186024e+005 1.003674395013e+005 0.000000000000e+000 2.709785548166e+005 0.000000000000e+000 2.365471286629e+005 2.161285843463e+005 2.284366761502e+005 2.906062691496e+005 2.933482881126e+005 0.000000000000e+000 3.016518912680e+005 0.000000000000e+000 3.016354214378e+005 2.082157439976e+005 2.438996732160e+005 2.101118519344e+005 2.879343495474e+005 0.000000000000e+000 3.019156766039e+005 2.321035746317e+005 2.212044337338e+005 2.284774836750e+005 2.798278985649e+005 2.905393018448e+005 2.852097240951e+005 2.391375361437e+005 2.905084186234e+005 2.828059443676e+005 2.289688443937e+005 2.934083964818e+005 2.906127107234e+005 2.259903991814e+005 2.360863685400e+005 2.211704692850e+005 2.321071918529e+005 0.000000000000e+000 2.986592883809e+005 2.710525606060e+005 1.147350938974e+005 9.916966982440e+004 0.000000000000e+000 0.000000000000e+000 0.000000000000e+000 0.000000000000e+000 0.000000000000e+000 0.000000000000e+000 2.536548637717e+005 6.741328682734e+004 8.443200744840e+004 2.078377298484e+005 2.101721061906e+005 1.946408065449e+005 1.998399738424e+005 1.775049642478e+005 1.725218756418e+005 1.537291285159e+005 1.581924061678e+005 2.989445768251e+005 0.000000000000e+000 0.000000000000e+000 0.000000000000e+000 0.000000000000e+000 3.020659691766e+005 0.000000000000e+000 1.407000295126e+005 1.653107102542e+005 1.879846013742e+005 2.017224634616e+005 1.260060971804e+005 1.060825535233e+005 7.968519076288e+004 0.000000000000e+000 2.391843422892e+005 0.000000000000e+000 2.539205937221e+005 0.000000000000e+000 2.636628821628e+005 0.000000000000e+000 0.000000000000e+000 0.000000000000e+000 0.000000000000e+000 0.000000000000e+000 0.00000