<?xml version="1.0"?>
<VTKFile type="UnstructuredGrid" version="0.1" byte_order="LittleEndian">
  <UnstructuredGrid>
    <Piece NumberOfPoints="2604" NumberOfCells="4910">
      <Points>
        <DataArray type="Float64" NumberOfComponents="3" format="ascii">
          0.000000000000e+000 0.000000000000e+000 0.000000000000e+000
          2.000000000000e+002 0.000000000000e+000 0.000000000000e+000
          2.000000000000e+002 2.000000000000e+001 0.000000000000e+000
          0.000000000000e+000 2.000000000000e+001 0.000000000000e+000
          1.492537313427e+000 0.000000000000e+000 0.000000000000e+000
          2.985074626854e+000 0.000000000000e+000 0.000000000000e+000
          4.477611940281e+000 0.000000000000e+000 0.000000000000e+000
          5.970149253708e+000 0.000000000000e+000 0.000000000000e+000
          7.462686567135e+000 0.000000000000e+000 0.000000000000e+000
          8.955223880561e+000 0.000000000000e+000 0.000000000000e+000
          1.044776119399e+001 0.000000000000e+000 0.000000000000e+000
          1.194029850741e+001 0.000000000000e+000 0.000000000000e+000
          1.343283582084e+001 0.000000000000e+000 0.000000000000e+000
          1.492537313427e+001 0.000000000000e+000 0.000000000000e+000
          1.641791044770e+001 0.000000000000e+000 0.000000000000e+000
          1.791044776112e+001 0.000000000000e+000 0.000000000000e+000
          1.940298507455e+001 0.000000000000e+000 0.000000000000e+000
          2.089552238798e+001 0.000000000000e+000 0.000000000000e+000
          2.238805970141e+001 0.000000000000e+000 0.000000000000e+000
          2.388059701484e+001 0.000000000000e+000 0.000000000000e+000
          2.537313432826e+001 0.000000000000e+000 0.000000000000e+000
          2.686567164169e+001 0.000000000000e+000 0.000000000000e+000
          2.835820895511e+001 0.000000000000e+000 0.000000000000e+000
          2.985074626854e+001 0.000000000000e+000 0.000000000000e+000
          3.134328358196e+001 0.000000000000e+000 0.000000000000e+000
          3.283582089539e+001 0.000000000000e+000 0.000000000000e+000
          3.432835820881e+001 0.000000000000e+000 0.000000000000e+000
          3.582089552224e+001 0.000000000000e+000 0.000000000000e+000
          3.731343283566e+001 0.000000000000e+000 0.000000000000e+000
          3.880597014909e+001 0.000000000000e+000 0.000000000000e+000
          4.029850746251e+001 0.000000000000e+000 0.000000000000e+000
          4.179104477594e+001 0.000000000000e+000 0.000000000000e+000
          4.328358208936e+001 0.000000000000e+000 0.000000000000e+000
          4.477611940279e+001 0.000000000000e+000 0.000000000000e+000
          4.626865671621e+001 0.000000000000e+000 0.000000000000e+000
          4.776119402964e+001 0.000000000000e+000 0.000000000000e+000
          4.925373134306e+001 0.000000000000e+000 0.000000000000e+000
          5.074626865649e+001 0.000000000000e+000 0.000000000000e+000
          5.223880596991e+001 0.000000000000e+000 0.000000000000e+000
          5.373134328334e+001 0.000000000000e+000 0.000000000000e+000
          5.522388059676e+001 0.000000000000e+000 0.000000000000e+000
          5.671641791019e+001 0.000000000000e+000 0.000000000000e+000
          5.820895522361e+001 0.000000000000e+000 0.000000000000e+000
          5.970149253704e+001 0.000000000000e+000 0.000000000000e+000
          6.119402985046e+001 0.000000000000e+000 0.000000000000e+000
          6.268656716389e+001 0.000000000000e+000 0.000000000000e+000
          6.417910447732e+001 0.000000000000e+000 0.000000000000e+000
          6.567164179075e+001 0.000000000000e+000 0.000000000000e+000
          6.716417910418e+001 0.000000000000e+000 0.000000000000e+000
          6.865671641761e+001 0.000000000000e+000 0.000000000000e+000
          7.014925373104e+001 0.000000000000e+000 0.000000000000e+000
          7.164179104447e+001 0.000000000000e+000 0.000000000000e+000
          7.313432835790e+001 0.000000000000e+000 0.000000000000e+000
          7.462686567133e+001 0.000000000000e+000 0.000000000000e+000
          7.611940298476e+001 0.000000000000e+000 0.000000000000e+000
          7.761194029819e+001 0.000000000000e+000 0.000000000000e+000
          7.910447761162e+001 0.000000000000e+000 0.000000000000e+000
          8.059701492505e+001 0.000000000000e+000 0.000000000000e+000
          8.208955223848e+001 0.000000000000e+000 0.000000000000e+000
          8.358208955191e+001 0.000000000000e+000 0.000000000000e+000
          8.507462686534e+001 0.000000000000e+000 0.000000000000e+000
          8.656716417877e+001 0.000000000000e+000 0.000000000000e+000
          8.805970149220e+001 0.000000000000e+000 0.000000000000e+000
          8.955223880563e+001 0.000000000000e+000 0.000000000000e+000
          9.104477611907e+001 0.000000000000e+000 0.000000000000e+000
          9.253731343250e+001 0.000000000000e+000 0.000000000000e+000
          9.402985074593e+001 0.000000000000e+000 0.000000000000e+000
          9.552238805936e+001 0.000000000000e+000 0.000000000000e+000
          9.701492537279e+001 0.000000000000e+000 0.000000000000e+000
          9.850746268622e+001 0.000000000000e+000 0.000000000000e+000
          9.999999999965e+001 0.000000000000e+000 0.000000000000e+000
          1.014925373131e+002 0.000000000000e+000 0.000000000000e+000
          1.029850746265e+002 0.000000000000e+000 0.000000000000e+000
          1.044776119399e+002 0.000000000000e+000 0.000000000000e+000
          1.059701492534e+002 0.000000000000e+000 0.000000000000e+000
          1.074626865668e+002 0.000000000000e+000 0.000000000000e+000
          1.089552238802e+002 0.000000000000e+000 0.000000000000e+000
          1.104477611937e+002 0.000000000000e+000 0.000000000000e+000
          1.119402985071e+002 0.000000000000e+000 0.000000000000e+000
          1.134328358205e+002 0.000000000000e+000 0.000000000000e+000
          1.149253731340e+002 0.000000000000e+000 0.000000000000e+000
          1.164179104474e+002 0.000000000000e+000 0.000000000000e+000
          1.179104477608e+002 0.000000000000e+000 0.000000000000e+000
          1.194029850742e+002 0.000000000000e+000 0.000000000000e+000
          1.208955223877e+002 0.000000000000e+000 0.000000000000e+000
          1.223880597011e+002 0.000000000000e+000 0.000000000000e+000
          1.238805970145e+002 0.000000000000e+000 0.000000000000e+000
          1.253731343280e+002 0.000000000000e+000 0.000000000000e+000
          1.268656716414e+002 0.000000000000e+000 0.000000000000e+000
          1.283582089548e+002 0.000000000000e+000 0.000000000000e+000
          1.298507462683e+002 0.000000000000e+000 0.000000000000e+000
          1.313432835817e+002 0.000000000000e+000 0.000000000000e+000
          1.328358208952e+002 0.000000000000e+000 0.000000000000e+000
          1.343283582086e+002 0.000000000000e+000 0.000000000000e+000
          1.358208955220e+002 0.000000000000e+000 0.000000000000e+000
          1.373134328355e+002 0.000000000000e+000 0.000000000000e+000
          1.388059701489e+002 0.000000000000e+000 0.000000000000e+000
          1.402985074624e+002 0.000000000000e+000 0.000000000000e+000
          1.417910447758e+002 0.000000000000e+000 0.000000000000e+000
          1.432835820892e+002 0.000000000000e+000 0.000000000000e+000
          1.447761194027e+002 0.000000000000e+000 0.000000000000e+000
          1.462686567161e+002 0.000000000000e+000 0.000000000000e+000
          1.477611940296e+002 0.000000000000e+000 0.000000000000e+000
          1.492537313430e+002 0.000000000000e+000 0.000000000000e+000
          1.507462686564e+002 0.000000000000e+000 0.000000000000e+000
          1.522388059699e+002 0.000000000000e+000 0.000000000000e+000
          1.537313432833e+002 0.000000000000e+000 0.000000000000e+000
          1.552238805968e+002 0.000000000000e+000 0.000000000000e+000
          1.567164179102e+002 0.000000000000e+000 0.000000000000e+000
          1.582089552237e+002 0.000000000000e+000 0.000000000000e+000
          1.597014925371e+002 0.000000000000e+000 0.000000000000e+000
          1.611940298505e+002 0.000000000000e+000 0.000000000000e+000
          1.626865671640e+002 0.000000000000e+000 0.000000000000e+000
          1.641791044774e+002 0.000000000000e+000 0.000000000000e+000
          1.656716417909e+002 0.000000000000e+000 0.000000000000e+000
          1.671641791043e+002 0.000000000000e+000 0.000000000000e+000
          1.686567164177e+002 0.000000000000e+000 0.000000000000e+000
          1.701492537312e+002 0.000000000000e+000 0.000000000000e+000
          1.716417910446e+002 0.000000000000e+000 0.000000000000e+000
          1.731343283581e+002 0.000000000000e+000 0.000000000000e+000
          1.746268656715e+002 0.000000000000e+000 0.000000000000e+000
          1.761194029849e+002 0.000000000000e+000 0.000000000000e+000
          1.776119402984e+002 0.000000000000e+000 0.000000000000e+000
          1.791044776118e+002 0.000000000000e+000 0.000000000000e+000
          1.805970149253e+002 0.000000000000e+000 0.000000000000e+000
          1.820895522387e+002 0.000000000000e+000 0.000000000000e+000
          1.835820895521e+002 0.000000000000e+000 0.000000000000e+000
          1.850746268656e+002 0.000000000000e+000 0.000000000000e+000
          1.865671641790e+002 0.000000000000e+000 0.000000000000e+000
          1.880597014925e+002 0.000000000000e+000 0.000000000000e+000
          1.895522388059e+002 0.000000000000e+000 0.000000000000e+000
          1.910447761194e+002 0.000000000000e+000 0.000000000000e+000
          1.925373134328e+002 0.000000000000e+000 0.000000000000e+000
          1.940298507462e+002 0.000000000000e+000 0.000000000000e+000
          1.955223880597e+002 0.000000000000e+000 0.000000000000e+000
          1.970149253731e+002 0.000000000000e+000 0.000000000000e+000
          1.985074626866e+002 0.000000000000e+000 0.000000000000e+000
          2.000000000000e+002 1.428571428570e+000 0.000000000000e+000
          2.000000000000e+002 2.857142857140e+000 0.000000000000e+000
[...]
      <PointData Scalars="Capillary_Pressure">
        <DataArray type="Float64" Name="Capillary_Pressure" format="ascii">
          3.832999215904e+005 0.000000000000e+000 0.000000000000e+000 3.833026408460e+005 3.835323126920e+005 3.807725407469e+005 3.799098671288e+005 3.779652281750e+005 3.776920531188e+005 3.757851042961e+005 3.737481228255e+005 3.736731998650e+005 3.714946604638e+005 3.713299559345e+005 3.694650995486e+005 3.670814831018e+005 3.671176840173e+005 3.650963887543e+005 3.646948446217e+005 3.625842080420e+005 3.591735977078e+005 3.589828012780e+005 3.584238166800e+005 3.554082820230e+005 3.550861934519e+005 3.528978187500e+005 3.522857015582e+005 3.491356092208e+005 3.486507710725e+005 3.465856998023e+005 3.459665189661e+005 3.427595617042e+005 3.422492530344e+005 3.402756022709e+005 3.395600535512e+005 3.359471518850e+005 3.358938907017e+005 3.332874213572e+005 3.308941305938e+005 3.306369494119e+005 3.298676576961e+005 3.266981570192e+005 3.240493295308e+005 3.236887546023e+005 3.200418684914e+005 3.195897825174e+005 3.167571980369e+005 3.163060422173e+005 3.138769746842e+005 3.129916103756e+005 3.089055424132e+005 3.087445977257e+005 3.048920601669e+005 3.043656338005e+005 3.003993396313e+005 2.990712693394e+005 2.968968094585e+005 2.964667811385e+005 2.953658279945e+005 2.915823715199e+005 2.883634083842e+005 2.880343336933e+005 2.840011915832e+005 2.833115583557e+005 2.804167146364e+005 2.770541456351e+005 2.740560333164e+005 2.734766604935e+005 2.689219255812e+005 2.673573682978e+005 2.647568317085e+005 2.616234815012e+005 2.608128936092e+005 2.579534901406e+005 2.542316190271e+005 2.509115685490e+005 2.504111252717e+005 2.468854691705e+005 2.436586492891e+005 2.423906006029e+005 2.366797221627e+005 2.333053878596e+005 2.302052342780e+005 2.266058219749e+005 2.230951193172e+005 2.193790826702e+005 2.186919389023e+005 2.152012260971e+005 2.113380477295e+005 2.078082112883e+005 2.005754568424e+005 1.967246489797e+005 1.928250226398e+005 1.884627452961e+005 1.858508394174e+005 1.782574385358e+005 1.737435968237e+005 1.712891366696e+005 1.631064358553e+005 1.568661028006e+005 1.538143882903e+005 1.436197024751e+005 1.370561423079e+005 1.299380882907e+005 1.210997298061e+005 1.117961368046e+005 1.016092472621e+005 8.921586095851e+004 7.548481640628e+004 5.822206280486e+004 3.554367689210e+004 3.048747070541e+003 0.000000000000e+000 0.000000000000e+000 0.000000000000e+000 0.000000000000e+000 0.000000000000e+000 0.000000000000e+000 0.000000000000e+000 0.000000000000e+000 0.000000000000e+000 0.000000000000e+000 0.000000000000e+000 0.000000000000e+000 0.000000000000e+000 0.000000000000e+000 0.000000000000e+000 0.000000000000e+000 0.000000000000e+000 0.000000000000e+000 0.000000000000e+000 0.000000000000e+000 0.000000000000e+000 0.000000000000e+000 0.000000000000e+000 0.000000000000e+000 0.000000000000e+000 0.000000000000e+000 0.000000000000e+000 0.000000000000e+000 0.000000000000e+000 0.000000000000e+000 0.000000000000e+000 0.000000000000e+000 0.000000000000e+000 0.000000000000e+000 0.000000000000e+000 0.000000000000e+000 0.000000000000e+000 0.000000000000e+000 0.000000000000e+000 0.000000000000e+000 0.000000000000e+000 0.000000000000e+000 0.000000000000e+000 0.000000000000e+000 0.000000000000e+000 0.000000000000e+000 0.000000000000e+000 0.000000000000e+000 0.000000000000e+000 0.000000000000e+000 0.000000000000e+000 0.000000000000e+000 0.000000000000e+000 0.000000000000e+000 0.000000000000e+000 0.000000000000e+000 0.000000000000e+000 0.000000000000e+000 0.000000000000e+000 0.000000000000e+000 0.000000000000e+000 0.000000000000e+000 0.000000000000e+000 3.049955944900e+003 3.553147966229e+004 5.819209630133e+004 7.547702078411e+004 8.919981940345e+004 1.016125284899e+005 1.118180537423e+005 1.210882525593e+005 1.299355615394e+005 1.370490035582e+005 1.436104860387e+005 1.538121147407e+005 1.568578511786e+005 1.630869462745e+005 1.712825011683e+005 1.737389875383e+005 1.782682578386e+005 1.858380488574e+005 1.884598002645e+005 1.928133219817e+005 1.967069175883e+005 2.005685072915e+005 2.078002922650e+005 2.113449086199e+005 2.152078887018e+005 2.186883410502e+005 2.193841506791e+005 2.231006784436e+005 2.266212859030e+005 2.301971292003e+005 2.333142851901e+005 2.366513465532e+005 2.423836397500e+005 2.436450457247e+005 2.468951236561e+005 2.503954430274e+005 2.509011609006e+005 2.542203238261e+005 2.579396518824e+005 2.608280222603e+005 2.641455298339e+005 2.647594312813e+005 2.673426446345e+005 2.688949562391e+005 2.734896570299e+005 2.766514166179e+005 2.770467077776e+005 2.803469543086e+005 2.833222101483e+005 2.840097262945e+005 2.880274245835e+005 2.883721109899e+005 2.916144034154e+005 2.953639484883e+005 2.964688397500e+005 2.969161484008e+005 2.990862370224e+005 3.034347896899e+005 3.043849817424e+005 3.048908083015e+005 3.087568835229e+005 3.089505653691e+005 3.129746949918e+005 3.138450556286e+005 3.162976383011e+005 3.167446830664e+005 3.195668045660e+005 3.228356577068e+005 3.236897530197e+005 3.240298199463e+005 3.266985222089e+005 3.298652472701e+005 3.306416293916e+005 3.308843403324e+005 3.332868620137e+005 3.358959119343e+005 3.359437773299e+005 3.395589270774e+005 3.402714728396e+005 3.422471823696e+005 3.427624638458e+005 3.459640915231e+005 3.465846170660e+005 3.486500464800e+005 3.491288649177e+005 3.522883326708e+005 3.528918316653e+005 3.550851355135e+005 3.554129436327e+005 3.584250124963e+005 3.589829462660e+005 3.591803218120e+005 3.625737889511e+005 3.646911358646e+005 3.650953509763e+005 3.671268627535e+005 3.670694402878e+005 3.694195680719e+005 3.694778013695e+005 3.715089313250e+005 3.736740988619e+005 3.737357732768e+005 3.757941622946e+005 3.776977447959e+005 3.779780091581e+005 3.798694954426e+005 3.807762642033e+005 3.835316751276e+005 3.833033466251e+005 3.833010211744e+005 3.833037052448e+005 3.833030201958e+005 3.832989398381e+005 3.833013225758e+005 3.833023065111e+005 3.832992432948e+005 3.833002723796e+005 3.833039366492e+005 3.833010590708e+005 3.833003896576e+005 3.833004575553e+005 0.000000000000e+000 3.757700887028e+005 0.000000000000e+000 0.000000000000e+000 4.904933013199e+004 1.338853648372e+005 1.783147580882e+005 3.587794302123e+005 2.074073705402e+005 3.466139611928e+005 3.361503410519e+005 3.239516152027e+005 3.040361639485e+005 2.886385977563e+005 2.729703696894e+005 2.538715841315e+005 2.336773681341e+005 3.673098200638e+005 3.138641276794e+005 2.193646541227e+005 2.224110730021e+005 2.436361094944e+005 2.641686900155e+005 2.803264193484e+005 2.964742487574e+005 0.000000000000e+000 0.000000000000e+000 1.003853051522e+005 2.964679411768e+005 2.805310426507e+005 2.640026446452e+005 2.432649432465e+005 1.566766270687e+005 1.927935514778e+005 3.529064585756e+005 3.423166023424e+005 3.305728378795e+005 1.927551383279e+005 1.568414052784e+005 1.015904589924e+005 0.000000000000e+000 0.000000000000e+000 3.306629577845e+005 3.422514833463e+005 3.528846527855e+005 0.000000000000e+000 0.000000000000e+000 3.168568315886e+005 3.092810117434e+005 3.713225161313e+005 3.625749651565e+005 0.000000000000e+000 3.779719701796e+005 0.000000000000e+000 3.779819720503e+005 3.710870961591e+005 3.626176779942e+005 3.197138053580e+005 3.085169952890e+005 0.000000000000e+000 2.336763140098e+005 0.000000000000e+000 2.538675740255e+005 2.729615128774e+005 2.886221483271e+005 3.036669064300e+005 2.074541200237e+005 4.733628985597e+004 1.329891600782e+005 1.782805677952e+005 3.466463982290e+005 3.362129246381e+005 2.083951209491e+005 1.784321558420e+005 1.338088385228e+005 4.791881108726e+004 2.886390404601e+005 2.729524842141e+005 2.538916681442e+005 0.000000000000e+000 2.336503489007e+005 0.000000000000e+000 3.240158715308e+005 3.361657296385e+005 3.466402919918e+005 3.587832213789e+005 0.000000000000e+000 0.000000000000e+000 3.737359664799e+005 3.584167731263e+005 3.002297934275e+005 3.262104121141e+005 0.000000000000e+000 3.799263164592e+005 3.672958127585e+005 3.757335826733e+005 3.673142257978e+005 3.138822869731e+005 3.193648492296e+005 3.089924232659e+005 3.715040087429e+005 3.625511321014e+005 3.138385721042e+005 0.000000000000e+000 9.121730924840e+004 0.000000000000e+000 1.539247688662e+005 0.000000000000e+000 1.888947260638e+005 2.425616849371e+005 2.772550171787e+005 2.925003711867e+005 2.609529257122e+005 3.523026362480e+005 3.308350398226e+005 3.422674254293e+005 2.229833080151e+005 3.138783891897e+005 0.000000000000e+000 3.807628037723e+005 0.000000000000e+000 3.807597598520e+005 2.380385670916e+005 2.580150222815e+005 2.772528476280e+005 2.920194260624e+005 2.006218990200e+005 2.264733108106e+005 2.152497166622e+005 1.678014501873e+005 3.268909236512e+005 1.153980423133e+005 3.400686074612e+005 0.000000000000e+000 3.494145262443e+005 0.000000000000e+000 0.000000000000e+000 0.000000000000e+000 0.000000000000e+000 0.000000000000e+000 1.162149470015e+005 8.497827722974e+004 1.679376153563e+005 1.504888442003e+005 3.493546763553e+005 1.893347169633e+005 2.006386797849e+005 3.400246732205e+005 3.429332218808e+005 2.919907449922e+005 2.772383213584e+005 2.579693176672e+005 2.836339704974e+005 2.650963422005e+005 2.420092786418e+005 2.465160622439e+005 3.309386056072e+005 2.152353279466e+005 2.262306744297e+005 0.000000000000e+000 3.552520731265e+005 0.000000000000e+000 3.428645078510e+005 8.703672222322e+004 3.310226520798e+005 1.498768882350e+005 2.993039176779e+005 2.837712279323e+005 2.652357768082e+005 2.497117909771e+005 1.895019841390e+005 3.672907383919e+005 0.000000000000e+000 0.000000000000e+000 3.083648689095e+005 3.222896544818e+005 3.623958252695e+005 2.153478256723e+005 2.650943025600e+005 2.464424435729e+005 2.835785360386e+005 2.992865589725e+005 3.552241592993e+005 3.401124709806e+005 0.000000000000e+000 3.269089401541e+005 0.000000000000e+000 1.168795553113e+005 2.005166043595e+005 1.639792333473e+005 3.550904556170e+005 0.000000000000e+000 0.000000000000e+000 3.125024867387e+005 3.714970662830e+005 0.000000000000e+000 2.150735246075e+005 2.040131745998e+005 1.713968229491e+005 3.265210782084e+005 1.218699354976e+005 3.395120580460e+005 2.840613815762e+005 2.673812822637e+005 2.504832958675e+005 0.000000000000e+000 3.554085553429e+005 0.000000000000e+000 3.648734476364e+005 2.995213438916e+005 0.000000000000e+000 0.000000000000e+000 0.000000000000e+000 2.967964268265e+005 3.299408774318e+005 3.048247772172e+005 3.229599397482e+005 3.777084373619e+005 3.591349667276e+005 3.736382466850e+005 3.693696657684e+005 3.591323618270e+005 2.366692796770e+005 2.579521316959e+005 2.766800093882e+005 2.916233771213e+005 1.117531683080e+003 3.491380738482e+005 0.000000000000e+000 2.266744115699e+005 1.858725192595e+005 4.535584573721e+003 1.435052924946e+005 0.000000000000e+000 7.542765620128e+004 2.372363521264e+005 2.579791127802e+005 2.766300132114e+005 2.915766295603e+005 3.490676110720e+005 3.332547913099e+005 3.459787461719e+005 3.459754101059e+005 7.458980197184e+004 3.328278546942e+005 1.435228651268e+005 1.857789594578e+005 2.266460489938e+005 0.000000000000e+000 0.000000000000e+000 3.807613948174e+005 3.807697892898e+005 0.000000000000e+000 3.772633750209e+005 0.000000000000e+000 0.000000000000e+000 3.758311242370e+005 0.000000000000e+000 3.736513813327e+005 3.772725182304e+005 3.231535722732e+005 3.042361792891e+005 3.585767133295e+005 3.735595654137e+005 3.237448661720e+005 3.649826777709e+005 3.651274372002e+005 3.042816112438e+005 3.692583078978e+005 3.192980904859e+005 3.126295516198e+005 3.694147523290e+005 3.398363506040e+005 2.001684395489e+005 1.671904050790e+005 1.190405956222e+005 0.000000000000e+000 0.000000000000e+000 2.154905550937e+005 2.995470306189e+005 2.834354110358e+005 2.678752533520e+005 2.501379378384e+005 3.166916258989e+005 3.650610984665e+005 3.095120844674e+005 3.162492897801e+005 0.000000000000e+000 0.000000000000e+000 3.549637019136e+005 3.293532036139e+005 3.758600803922e+005 3.779295531808e+005 0.000000000000e+000 3.693132316239e+005 2.337592124142e+005 2.568472924963e+005 2.735289750460e+005 2.883938481418e+005 2.078338953137e+005 2.081959273007e+005 2.301056943702e+005 1.736801896915e+005 1.313057495018e+005 3.240603453217e+005 3.393112376894e+004 3.363094328359e+005 0.000000000000e+000 3.486730432814e+005 0.000000000000e+000 0.000000000000e+000 3.354356447835e+004 1.312427514808e+005 1.748326024146e+005 3.486900570679e+005 3.363166533977e+005 2.883715427881e+005 2.735455522427e+005 2.568658938883e+005 0.000000000000e+000 3.584077541390e+005 3.003265940376e+005 0.000000000000e+000 0.000000000000e+000 0.000000000000e+000 3.556002486729e+005 3.592410957852e+005 3.736381997524e+005 3.129151184497e+005 0.000000000000e+000 0.000000000000e+000 1.067179507738e+005 1.603029223974e+005 1.970048656953e+005 3.529622952909e+005 3.401953773556e+005 3.302134414387e+005 2.436578163911e+005 2.805312369818e+005 2.968775944389e+005 2.647470100437e+005 2.190649011974e+005 0.000000000000e+000 0.000000000000e+000 0.000000000000e+000 0.000000000000e+000 1.343335624890e+005 1.781717475887e+005 3.362432390057e+005 2.884825804816e+005 2.726643835320e+005 2.536763235897e+005 3.801484391589e+005 3.163696698527e+005 2.081451687138e+005 2.078009051579e+005 3.036814667802e+005 0.000000000000e+000 3.833764342116e+005 3.265289797143e+005 2.992573725488e+005 1.928416558279e+005 1.569194480571e+005 1.016436506674e+005 0.000000000000e+000 0.000000000000e+000 3.306189324699e+005 3.422300547568e+005 3.528956189479e+005 2.641426310272e+005 2.436522458447e+005 2.964700635259e+005 2.804103394996e+005 0.000000000000e+000 0.000000000000e+000 2.803912698111e+005 2.641244305130e+005 1.015962321977e+005 2.436561944020e+005 1.568705185761e+005 1.927690504679e+005 3.422512042092e+005 2.193339386892e+005 2.193932824824e+005 3.648525246432e+005 3.201551804441e+005 3.670795269896e+005 2.972409737293e+005 3.136820520559e+005 0.000000000000e+000 0.000000000000e+000 3.087501325450e+005 3.052705990827e+005 3.133228120863e+005 2.035883359705e+005 2.342510467566e+005 2.302515817022e+005 2.108931787793e+005 2.501909586259e+005 2.685026418409e+005 2.876326096334e+005 1.810568113051e+005 3.463896453298e+005 3.355681643246e+005 0.000000000000e+000 6.628319256877e+004 1.402031268953e+005 0.000000000000e+000 3.463862914725e+005 6.634667246075e+004 3.355627700324e+005 2.876256162814e+005 2.684782841741e+005 2.505749654628e+005 1.402099005492e+005 1.810683699709e+005 3.802415586857e+005 3.735121956000e+005 0.000000000000e+000 3.802353547731e+005 2.336436502714e+005 2.337210955099e+005 3.466498146433e+005 3.466587894737e+005 4.684956206870e+004 4.734617518621e+004 0.000000000000e+000 3.692117473779e+005 3.757664202276e+005 3.583934619965e+005 3.673280463993e+005 0.000000000000e+000 3.833768718665e+005 0.000000000000e+000 3.833757483306e+005 3.713412132018e+005 0.000000000000e+000 0.000000000000e+000 1.784629029887e+005 1.338308138816e+005 3.361686509600e+005 2.537564656681e+005 2.886728438412e+005 2.730086496118e+005 0.000000000000e+000 3.626793607509e+005 3.626359808620e+005 3.736507500687e+005 3.046391298359e+005 3.233080879131e+005 3.736746721318e+005 3.589854485142e+005 3.527963976829e+005 3.194348954523e+005 3.621332146077e+005 0.000000000000e+000 0.000000000000e+000 3.223498858515e+005 3.050297569630e+005 0.000000000000e+000 3.241773302308e+005 3.048873466837e+005 3.088368834290e+005 0.000000000000e+000 3.552489018849e+005 0.000000000000e+000 2.840523619045e+005 2.673869961742e+005 2.504758514597e+005 2.118633916305e+005 3.400472692046e+005 1.154652280792e+005 3.292667304344e+005 1.678594822577e+005 2.041010608049e+005 0.000000000000e+000 3.651213742794e+005 3.095970178455e+005 3.161389082697e+005 3.240305103069e+005 3.694384852909e+005 0.000000000000e+000 3.833757193451e+005 0.000000000000e+000 3.835189075803e+005 3.758983602501e+005 3.587638778514e+005 3.139552737093e+005 3.194257240511e+005 0.000000000000e+000 3.308523284103e+005 2.960902866820e+005 3.626489447046e+005 3.045733432143e+005 3.672152080537e+005 1.894126387219e+005 1.493508125285e+005 8.592187605491e+004 3.310619735888e+005 3.429395623323e+005 7.363402733814e+004 0.000000000000e+000 1.434127970242e+005 6.747519897526e+003 1.856636591912e+005 3.460150749118e+005 3.328548414559e+005 3.485688626653e+005 2.915362597718e+005 2.578831280331e+005 2.739684931765e+005 2.374418292400e+005 0.000000000000e+000 0.000000000000e+000 3.493733230048e+005 2.263231319149e+005 2.920944595267e+005 2.773344195372e+005 2.580835244557e+005 2.420329712517e+005 2.267247207813e+005 2.193669833679e+005 2.436454809573e+005 2.804218214571e+005 2.641809226058e+005 2.964727535273e+005 0.000000000000e+000 0.000000000000e+000 1.015551909247e+005 1.927829998024e+005 1.568302883448e+005 3.528881333472e+005 3.422474821924e+005 3.306398466805e+005 3.233540399671e+005 3.591292692970e+005 0.000000000000e+000 3.758929786707e+005 2.268790607234e+005 2.373102526641e+005 2.577818980772e+005 2.764052025435e+005 2.914291852517e+005 1.225502127385e+004 0.000000000000e+000 3.484738810528e+005 7.190527870325e+004 1.432803770756e+005 1.855150952510e+005 3.462031650386e+005 3.329095475004e+005 3.134936161409e+005 0.000000000000e+000 3.164205161514e+005 0.000000000000e+000 2.225408063498e+005 2.192758166433e+005 2.434530673292e+005 2.638175152562e+005 2.801655336093e+005 2.961709095094e+005 0.000000000000e+000 0.000000000000e+000 1.029637527849e+005 1.607016820641e+005 1.923568381197e+005 3.421484608481e+005 1.929112784961e+005 2.802946460131e+005 2.617429641451e+005 2.434967475213e+005 1.569684474886e+005 1.016863114609e+005 3.305835080163e+005 0.000000000000e+000 3.422089474673e+005 0.000000000000e+000 3.528931165671e+005 3.673068986372e+005 0.000000000000e+000 3.525093829440e+005 0.000000000000e+000 2.772840720900e+005 2.426198859712e+005 2.608027780491e+005 2.925164778321e+005 3.421694953917e+005 9.233481220318e+004 3.305297747013e+005 1.526868719844e+005 1.890953662800e+005 2.227663049344e+005 3.758040244335e+005 0.000000000000e+000 3.833785925160e+005 0.000000000000e+000 0.000000000000e+000 0.000000000000e+000 3.165784242604e+005 3.097474778474e+005 3.627901480177e+005 3.528326520823e+005 0.000000000000e+000 3.754091742996e+005 0.000000000000e+000 0.000000000000e+000 3.589084443786e+005 2.041633659213e+005 1.715256228680e+005 3.266257581111e+005 1.254325577426e+005 3.394615378990e+005 2.503831580305e+005 2.673907112847e+005 2.839934111824e+005 2.118634027418e+005 0.000000000000e+000 3.554922071398e+005 0.000000000000e+000 3.240438055361e+005 3.037477592321e+005 3.167820183320e+005 3.714654425211e+005 3.736382686576e+005 0.000000000000e+000 3.799533584580e+005 0.000000000000e+000 3.799550771975e+005 2.960465396390e+005 3.308366768230e+005 2.992601232355e+005 3.693519303381e+005 0.000000000000e+000 3.801529867025e+005 3.197728477772e+005 3.092141859999e+005 3.168836051435e+005 3.628126242435e+005 3.713654736009e+005 3.671455539929e+005 3.270108549118e+005 3.713709388838e+005 3.651584500276e+005 3.167244495856e+005 3.737489128161e+005 3.715525084167e+005 3.134346674755e+005 3.227553989931e+005 3.090405922256e+005 3.195019043961e+005 0.000000000000e+000 3.777034987181e+005 3.553645093049e+005 2.190098303979e+005 2.109630650850e+005 0.000000000000e+000 0.000000000000e+000 0.000000000000e+000 0.000000000000e+000 1.219626275599e+005 1.714726118308e+005 3.394746202047e+005 1.963964549583e+005 2.035375734549e+005 2.968695519224e+005 2.993857251050e+005 2.832272717423e+005 2.875752695683e+005 2.684060688703e+005 2.642857101395e+005 2.468934707926e+005 2.509120844584e+005 3.779655982305e+005 0.000000000000e+000 0.000000000000e+000 0.000000000000e+000 0.000000000000e+000 3.802680719761e+005 0.000000000000e+000 2.378586191035e+005 2.579073140202e+005 2.771538584760e+005 2.913141773270e+005 2.264849916366e+005 2.147939348597e+005 2.007643206727e+005 1.680151879357e+005 3.267904367639e+005 1.162723575653e+005 3.399869822605e+005 0.000000000000e+000 3.493415149917e+005 0.000000000000e+000 0.000000000000e+000 0.000000000000e+000 0.000000000000e+000 1.162944409149e+005 1.68013