<?xml version="1.0"?>
<VTKFile type="UnstructuredGrid" version="0.1" byte_order="LittleEndian">
  <UnstructuredGrid>
    <Piece NumberOfPoints="2604" NumberOfCells="4910">
      <Points>
        <DataArray type="Float64" NumberOfComponents="3" format="ascii">
          0.000000000000e+000 0.000000000000e+000 0.000000000000e+000
          2.000000000000e+002 0.000000000000e+000 0.000000000000e+000
          2.000000000000e+002 2.000000000000e+001 0.000000000000e+000
          0.000000000000e+000 2.000000000000e+001 0.000000000000e+000
          1.492537313427e+000 0.000000000000e+000 0.000000000000e+000
          2.985074626854e+000 0.000000000000e+000 0.000000000000e+000
          4.477611940281e+000 0.000000000000e+000 0.000000000000e+000
          5.970149253708e+000 0.000000000000e+000 0.000000000000e+000
          7.462686567135e+000 0.000000000000e+000 0.000000000000e+000
          8.955223880561e+000 0.000000000000e+000 0.000000000000e+000
          1.044776119399e+001 0.000000000000e+000 0.000000000000e+000
          1.194029850741e+001 0.000000000000e+000 0.000000000000e+000
          1.343283582084e+001 0.000000000000e+000 0.000000000000e+000
          1.492537313427e+001 0.000000000000e+000 0.000000000000e+000
          1.641791044770e+001 0.000000000000e+000 0.000000000000e+000
          1.791044776112e+001 0.000000000000e+000 0.000000000000e+000
          1.940298507455e+001 0.000000000000e+000 0.000000000000e+000
          2.089552238798e+001 0.000000000000e+000 0.000000000000e+000
          2.238805970141e+001 0.000000000000e+000 0.000000000000e+000
          2.388059701484e+001 0.000000000000e+000 0.000000000000e+000
          2.537313432826e+001 0.000000000000e+000 0.000000000000e+000
          2.686567164169e+001 0.000000000000e+000 0.000000000000e+000
          2.835820895511e+001 0.000000000000e+000 0.000000000000e+000
          2.985074626854e+001 0.000000000000e+000 0.000000000000e+000
          3.134328358196e+001 0.000000000000e+000 0.000000000000e+000
          3.283582089539e+001 0.000000000000e+000 0.000000000000e+000
          3.432835820881e+001 0.000000000000e+000 0.000000000000e+000
          3.582089552224e+001 0.000000000000e+000 0.000000000000e+000
          3.731343283566e+001 0.000000000000e+000 0.000000000000e+000
          3.880597014909e+001 0.000000000000e+000 0.000000000000e+000
          4.029850746251e+001 0.000000000000e+000 0.000000000000e+000
          4.179104477594e+001 0.000000000000e+000 0.000000000000e+000
          4.328358208936e+001 0.000000000000e+000 0.000000000000e+000
          4.477611940279e+001 0.000000000000e+000 0.000000000000e+000
          4.626865671621e+001 0.000000000000e+000 0.000000000000e+000
          4.776119402964e+001 0.000000000000e+000 0.000000000000e+000
          4.925373134306e+001 0.000000000000e+000 0.000000000000e+000
          5.074626865649e+001 0.000000000000e+000 0.000000000000e+000
          5.223880596991e+001 0.000000000000e+000 0.000000000000e+000
          5.373134328334e+001 0.000000000000e+000 0.000000000000e+000
          5.522388059676e+001 0.000000000000e+000 0.000000000000e+000
          5.671641791019e+001 0.000000000000e+000 0.000000000000e+000
          5.820895522361e+001 0.000000000000e+000 0.000000000000e+000
          5.970149253704e+001 0.000000000000e+000 0.000000000000e+000
          6.119402985046e+001 0.000000000000e+000 0.000000000000e+000
          6.268656716389e+001 0.000000000000e+000 0.000000000000e+000
          6.417910447732e+001 0.000000000000e+000 0.000000000000e+000
          6.567164179075e+001 0.000000000000e+000 0.000000000000e+000
          6.716417910418e+001 0.000000000000e+000 0.000000000000e+000
          6.865671641761e+001 0.000000000000e+000 0.000000000000e+000
          7.014925373104e+001 0.000000000000e+000 0.000000000000e+000
          7.164179104447e+001 0.000000000000e+000 0.000000000000e+000
          7.313432835790e+001 0.000000000000e+000 0.000000000000e+000
          7.462686567133e+001 0.000000000000e+000 0.000000000000e+000
          7.611940298476e+001 0.000000000000e+000 0.000000000000e+000
          7.761194029819e+001 0.000000000000e+000 0.000000000000e+000
          7.910447761162e+001 0.000000000000e+000 0.000000000000e+000
          8.059701492505e+001 0.000000000000e+000 0.000000000000e+000
          8.208955223848e+001 0.000000000000e+000 0.000000000000e+000
          8.358208955191e+001 0.000000000000e+000 0.000000000000e+000
          8.507462686534e+001 0.000000000000e+000 0.000000000000e+000
          8.656716417877e+001 0.000000000000e+000 0.000000000000e+000
          8.805970149220e+001 0.000000000000e+000 0.000000000000e+000
          8.955223880563e+001 0.000000000000e+000 0.000000000000e+000
          9.104477611907e+001 0.000000000000e+000 0.000000000000e+000
          9.253731343250e+001 0.000000000000e+000 0.000000000000e+000
          9.402985074593e+001 0.000000000000e+000 0.000000000000e+000
          9.552238805936e+001 0.000000000000e+000 0.000000000000e+000
          9.701492537279e+001 0.000000000000e+000 0.000000000000e+000
          9.850746268622e+001 0.000000000000e+000 0.000000000000e+000
          9.999999999965e+001 0.000000000000e+000 0.000000000000e+000
          1.014925373131e+002 0.000000000000e+000 0.000000000000e+000
          1.029850746265e+002 0.000000000000e+000 0.000000000000e+000
          1.044776119399e+002 0.000000000000e+000 0.000000000000e+000
          1.059701492534e+002 0.000000000000e+000 0.000000000000e+000
          1.074626865668e+002 0.000000000000e+000 0.000000000000e+000
          1.089552238802e+002 0.000000000000e+000 0.000000000000e+000
          1.104477611937e+002 0.000000000000e+000 0.000000000000e+000
          1.119402985071e+002 0.000000000000e+000 0.000000000000e+000
          1.134328358205e+002 0.000000000000e+000 0.000000000000e+000
          1.149253731340e+002 0.000000000000e+000 0.000000000000e+000
          1.164179104474e+002 0.000000000000e+000 0.000000000000e+000
          1.179104477608e+002 0.000000000000e+000 0.000000000000e+000
          1.194029850742e+002 0.000000000000e+000 0.000000000000e+000
          1.208955223877e+002 0.000000000000e+000 0.000000000000e+000
          1.223880597011e+002 0.000000000000e+000 0.000000000000e+000
          1.238805970145e+002 0.000000000000e+000 0.000000000000e+000
          1.253731343280e+002 0.000000000000e+000 0.000000000000e+000
          1.268656716414e+002 0.000000000000e+000 0.000000000000e+000
          1.283582089548e+002 0.000000000000e+000 0.000000000000e+000
          1.298507462683e+002 0.000000000000e+000 0.000000000000e+000
          1.313432835817e+002 0.000000000000e+000 0.000000000000e+000
          1.328358208952e+002 0.000000000000e+000 0.000000000000e+000
          1.343283582086e+002 0.000000000000e+000 0.000000000000e+000
          1.358208955220e+002 0.000000000000e+000 0.000000000000e+000
          1.373134328355e+002 0.000000000000e+000 0.000000000000e+000
          1.388059701489e+002 0.000000000000e+000 0.000000000000e+000
          1.402985074624e+002 0.000000000000e+000 0.000000000000e+000
          1.417910447758e+002 0.000000000000e+000 0.000000000000e+000
          1.432835820892e+002 0.000000000000e+000 0.000000000000e+000
          1.447761194027e+002 0.000000000000e+000 0.000000000000e+000
          1.462686567161e+002 0.000000000000e+000 0.000000000000e+000
          1.477611940296e+002 0.000000000000e+000 0.000000000000e+000
          1.492537313430e+002 0.000000000000e+000 0.000000000000e+000
          1.507462686564e+002 0.000000000000e+000 0.000000000000e+000
          1.522388059699e+002 0.000000000000e+000 0.000000000000e+000
          1.537313432833e+002 0.000000000000e+000 0.000000000000e+000
          1.552238805968e+002 0.000000000000e+000 0.000000000000e+000
          1.567164179102e+002 0.000000000000e+000 0.000000000000e+000
          1.582089552237e+002 0.000000000000e+000 0.000000000000e+000
          1.597014925371e+002 0.000000000000e+000 0.000000000000e+000
          1.611940298505e+002 0.000000000000e+000 0.000000000000e+000
          1.626865671640e+002 0.000000000000e+000 0.000000000000e+000
          1.641791044774e+002 0.000000000000e+000 0.000000000000e+000
          1.656716417909e+002 0.000000000000e+000 0.000000000000e+000
          1.671641791043e+002 0.000000000000e+000 0.000000000000e+000
          1.686567164177e+002 0.000000000000e+000 0.000000000000e+000
          1.701492537312e+002 0.000000000000e+000 0.000000000000e+000
          1.716417910446e+002 0.000000000000e+000 0.000000000000e+000
          1.731343283581e+002 0.000000000000e+000 0.000000000000e+000
          1.746268656715e+002 0.000000000000e+000 0.000000000000e+000
          1.761194029849e+002 0.000000000000e+000 0.000000000000e+000
          1.776119402984e+002 0.000000000000e+000 0.000000000000e+000
          1.791044776118e+002 0.000000000000e+000 0.000000000000e+000
          1.805970149253e+002 0.000000000000e+000 0.000000000000e+000
          1.820895522387e+002 0.000000000000e+000 0.000000000000e+000
          1.835820895521e+002 0.000000000000e+000 0.000000000000e+000
          1.850746268656e+002 0.000000000000e+000 0.000000000000e+000
          1.865671641790e+002 0.000000000000e+000 0.000000000000e+000
          1.880597014925e+002 0.000000000000e+000 0.000000000000e+000
          1.895522388059e+002 0.000000000000e+000 0.000000000000e+000
          1.910447761194e+002 0.000000000000e+000 0.000000000000e+000
          1.925373134328e+002 0.000000000000e+000 0.000000000000e+000
          1.940298507462e+002 0.000000000000e+000 0.000000000000e+000
          1.955223880597e+002 0.000000000000e+000 0.000000000000e+000
          1.970149253731e+002 0.000000000000e+000 0.000000000000e+000
          1.985074626866e+002 0.000000000000e+000 0.000000000000e+000
          2.000000000000e+002 1.428571428570e+000 0.000000000000e+000
          2.000000000000e+002 2.857142857140e+000 0.000000000000e+000
[...]
      <PointData Scalars="Capillary_Pressure">
        <DataArray type="Float64" Name="Capillary_Pressure" format="ascii">
          3.675367304421e+005 0.000000000000e+000 0.000000000000e+000 3.675418566063e+005 3.677959522701e+005 3.648586307747e+005 3.639784808090e+005 3.619392098678e+005 3.616659483077e+005 3.596716060593e+005 3.575594944691e+005 3.574974538161e+005 3.552490785109e+005 3.551337820857e+005 3.532277737299e+005 3.507547176875e+005 3.508374885271e+005 3.487749453700e+005 3.484253233625e+005 3.462611306063e+005 3.427269425636e+005 3.426299999187e+005 3.421255085608e+005 3.390261435943e+005 3.387954079150e+005 3.365808379778e+005 3.360531298868e+005 3.328270149075e+005 3.324475356280e+005 3.303808775059e+005 3.298788829318e+005 3.265963023932e+005 3.262086793926e+005 3.242575919395e+005 3.236794030438e+005 3.199652574376e+005 3.201045763606e+005 3.175140953781e+005 3.151167768918e+005 3.150468594964e+005 3.144388345084e+005 3.112300026060e+005 3.086611496680e+005 3.084390263616e+005 3.047745647163e+005 3.045004243676e+005 3.016848132223e+005 3.014535581769e+005 2.990898905047e+005 2.983576953170e+005 2.942750130692e+005 2.943252707957e+005 2.904549544356e+005 2.901528413155e+005 2.861707543868e+005 2.850264752753e+005 2.829616436330e+005 2.827738933503e+005 2.818753463732e+005 2.781251925949e+005 2.749343396769e+005 2.748896161342e+005 2.709002758386e+005 2.704039264880e+005 2.676432581302e+005 2.643436856680e+005 2.614553922021e+005 2.611529593223e+005 2.565698107022e+005 2.552437597221e+005 2.527732645771e+005 2.497357473452e+005 2.492367600587e+005 2.464990590679e+005 2.428612153292e+005 2.396272299856e+005 2.394427934761e+005 2.360338808517e+005 2.329276887165e+005 2.319633422788e+005 2.261514558217e+005 2.229351638774e+005 2.200050845456e+005 2.164861198936e+005 2.131233262355e+005 2.094988777056e+005 2.091318226781e+005 2.057856840807e+005 2.020323237820e+005 1.986105989480e+005 1.912823183653e+005 1.875479270804e+005 1.837341862027e+005 1.794605919091e+005 1.770397646228e+005 1.692902853849e+005 1.648181485032e+005 1.625936484875e+005 1.541630615104e+005 1.478171183754e+005 1.449322915564e+005 1.342256999910e+005 1.274545256645e+005 1.200361327094e+005 1.106432717937e+005 1.006214511605e+005 8.944088377202e+004 7.540263333702e+004 5.929446940490e+004 3.786717903962e+004 8.363767076417e+003 0.000000000000e+000 0.000000000000e+000 0.000000000000e+000 0.000000000000e+000 0.000000000000e+000 0.000000000000e+000 0.000000000000e+000 0.000000000000e+000 0.000000000000e+000 0.000000000000e+000 0.000000000000e+000 0.000000000000e+000 0.000000000000e+000 0.000000000000e+000 0.000000000000e+000 0.000000000000e+000 0.000000000000e+000 0.000000000000e+000 0.000000000000e+000 0.000000000000e+000 0.000000000000e+000 0.000000000000e+000 0.000000000000e+000 0.000000000000e+000 0.000000000000e+000 0.000000000000e+000 0.000000000000e+000 0.000000000000e+000 0.000000000000e+000 0.000000000000e+000 0.000000000000e+000 0.000000000000e+000 0.000000000000e+000 0.000000000000e+000 0.000000000000e+000 0.000000000000e+000 0.000000000000e+000 0.000000000000e+000 0.000000000000e+000 0.000000000000e+000 0.000000000000e+000 0.000000000000e+000 0.000000000000e+000 0.000000000000e+000 0.000000000000e+000 0.000000000000e+000 0.000000000000e+000 0.000000000000e+000 0.000000000000e+000 0.000000000000e+000 0.000000000000e+000 0.000000000000e+000 0.000000000000e+000 0.000000000000e+000 0.000000000000e+000 0.000000000000e+000 0.000000000000e+000 0.000000000000e+000 0.000000000000e+000 0.000000000000e+000 0.000000000000e+000 0.000000000000e+000 0.000000000000e+000 0.000000000000e+000 0.000000000000e+000 8.352083326865e+003 3.782146716034e+004 5.927475937296e+004 7.539349966376e+004 8.944482378951e+004 1.006497285014e+005 1.106371785341e+005 1.200389932321e+005 1.274458247315e+005 1.342106991409e+005 1.449318515402e+005 1.478078254435e+005 1.541401187013e+005 1.625813754322e+005 1.648106073870e+005 1.692953711712e+005 1.770296862487e+005 1.794502666065e+005 1.837269088291e+005 1.875162906484e+005 1.912784665728e+005 1.986301460889e+005 2.020291048377e+005 2.057800975955e+005 2.091211648728e+005 2.095051563889e+005 2.131290790193e+005 2.165165018691e+005 2.200115758190e+005 2.229424754918e+005 2.261294203217e+005 2.319389170506e+005 2.329262674772e+005 2.360591165212e+005 2.394309645050e+005 2.396124598970e+005 2.428552473262e+005 2.464892036024e+005 2.492516983786e+005 2.524412620227e+005 2.527748166598e+005 2.552399464267e+005 2.565329341729e+005 2.611669210056e+005 2.642193218435e+005 2.643747875184e+005 2.675531268642e+005 2.704248535268e+005 2.709192641537e+005 2.748792888255e+005 2.749436473134e+005 2.781720738551e+005 2.818729170971e+005 2.827754908044e+005 2.829911722043e+005 2.850341861642e+005 2.894251262777e+005 2.901692585783e+005 2.904455479594e+005 2.943440919899e+005 2.943166797052e+005 2.983503953371e+005 2.990569504056e+005 3.014392706126e+005 3.016575567944e+005 3.044717827937e+005 3.077673378943e+005 3.084349986563e+005 3.086119676214e+005 3.112413413841e+005 3.144164728422e+005 3.150619930270e+005 3.151002517443e+005 3.174954032947e+005 3.201173975075e+005 3.199589180413e+005 3.236825564492e+005 3.242502290878e+005 3.262059620900e+005 3.265955825203e+005 3.298797169670e+005 3.303786718559e+005 3.324477527261e+005 3.328151960586e+005 3.360626928364e+005 3.365708885965e+005 3.387886549692e+005 3.390327767689e+005 3.421292524593e+005 3.426206202170e+005 3.427269319365e+005 3.462521541753e+005 3.484197420823e+005 3.487669335574e+005 3.508424179025e+005 3.507622025592e+005 3.531137307959e+005 3.531520942813e+005 3.552454492617e+005 3.575173406836e+005 3.575230513556e+005 3.596915881081e+005 3.616678787664e+005 3.619476164856e+005 3.639382172066e+005 3.648678525091e+005 3.677929652749e+005 3.675441971301e+005 3.675430018860e+005 3.675425597733e+005 3.675425820665e+005 3.675374008037e+005 3.675400070165e+005 3.675405913734e+005 3.675366230533e+005 3.675400593832e+005 3.675458953694e+005 3.675377424829e+005 3.675410628126e+005 3.675403480312e+005 0.000000000000e+000 3.596758161642e+005 0.000000000000e+000 0.000000000000e+000 2.600678310373e+004 1.241460722909e+005 1.695287685154e+005 3.424559869883e+005 1.980343545678e+005 3.303506005247e+005 3.203061761880e+005 3.086349752616e+005 2.899178842976e+005 2.754051384379e+005 2.607727715211e+005 2.426622239097e+005 2.234850836276e+005 3.510027205143e+005 2.990644032143e+005 2.094954416847e+005 2.127153474051e+005 2.329043727033e+005 2.525112302159e+005 2.675310526914e+005 2.827818546395e+005 0.000000000000e+000 0.000000000000e+000 8.807404108202e+004 2.827725934981e+005 2.677219174236e+005 2.523269828500e+005 2.324487604111e+005 1.476614773467e+005 1.836947023693e+005 3.365840225098e+005 3.262569863517e+005 3.150004071662e+005 1.837185303111e+005 1.478003172804e+005 8.941717834348e+004 0.000000000000e+000 0.000000000000e+000 3.150816893124e+005 3.262100247091e+005 3.365706398230e+005 0.000000000000e+000 0.000000000000e+000 3.017466839792e+005 2.947202522072e+005 3.551025064803e+005 3.462264253267e+005 0.000000000000e+000 3.619370762444e+005 0.000000000000e+000 3.619534532778e+005 3.548519227290e+005 3.462776601311e+005 3.045886416612e+005 2.941266549681e+005 0.000000000000e+000 2.235124515517e+005 0.000000000000e+000 2.426508277901e+005 2.607765357828e+005 2.754005380301e+005 2.895908569572e+005 1.980573468098e+005 2.375314382979e+004 1.232309831745e+005 1.695514848103e+005 3.303658744039e+005 3.203418979781e+005 1.990611012448e+005 1.696647246555e+005 1.240933583202e+005 2.448178508978e+004 2.754116959261e+005 2.607671744562e+005 2.426702946723e+005 0.000000000000e+000 2.234493281555e+005 0.000000000000e+000 3.086854641768e+005 3.202954011883e+005 3.303586986185e+005 3.424668227207e+005 0.000000000000e+000 0.000000000000e+000 3.575277930816e+005 3.421326003319e+005 2.860394811961e+005 3.108735470762e+005 0.000000000000e+000 3.640009046227e+005 3.509929311649e+005 3.596364016043e+005 3.510187110231e+005 2.989137072228e+005 3.043956558592e+005 2.945156608776e+005 3.552680899897e+005 3.462319607262e+005 2.990579382056e+005 0.000000000000e+000 7.774907094395e+004 0.000000000000e+000 1.450105938599e+005 0.000000000000e+000 1.798653137945e+005 2.320357773768e+005 2.646088829237e+005 2.787846068910e+005 2.493910493347e+005 3.360711741689e+005 3.150702746949e+005 3.260891298472e+005 2.130386894231e+005 2.991019914727e+005 0.000000000000e+000 3.648514322661e+005 0.000000000000e+000 3.648516742812e+005 2.274228004082e+005 2.462869102998e+005 2.646559351422e+005 2.784164462557e+005 1.915588627126e+005 2.165495102475e+005 2.055947862616e+005 1.590869910242e+005 3.113371602768e+005 1.045251155565e+005 3.241039433667e+005 0.000000000000e+000 3.330440452377e+005 0.000000000000e+000 0.000000000000e+000 0.000000000000e+000 0.000000000000e+000 0.000000000000e+000 1.054137033074e+005 7.049744697902e+004 1.592003942310e+005 1.414369598448e+005 3.330026881334e+005 1.805136024779e+005 1.915644283119e+005 3.240742732191e+005 3.267126327342e+005 2.783540373588e+005 2.646537747724e+005 2.463116342904e+005 2.706635654794e+005 2.530347356810e+005 2.316610767200e+005 2.354936476941e+005 3.151533308095e+005 2.056191720375e+005 2.163729266970e+005 0.000000000000e+000 3.389302908995e+005 0.000000000000e+000 3.266589917078e+005 7.291230380863e+004 3.152258976443e+005 1.407349218191e+005 2.853841867841e+005 2.707835139935e+005 2.531491679249e+005 2.388830228761e+005 1.806713759947e+005 3.509735017924e+005 0.000000000000e+000 0.000000000000e+000 2.940138238192e+005 3.072946515662e+005 3.461079190454e+005 2.056850930483e+005 2.530406477897e+005 2.354093617504e+005 2.705979035761e+005 2.853738198164e+005 3.389082784821e+005 3.241214176974e+005 0.000000000000e+000 3.113170205719e+005 0.000000000000e+000 1.062570929259e+005 1.914837208179e+005 1.549856509342e+005 3.387866963363e+005 0.000000000000e+000 0.000000000000e+000 2.980097084390e+005 3.552519218150e+005 0.000000000000e+000 2.056681915060e+005 1.949337245554e+005 1.626761867462e+005 3.110752573419e+005 1.114651771906e+005 3.236260168093e+005 2.709282643996e+005 2.552214511022e+005 2.395180480237e+005 0.000000000000e+000 3.390259873432e+005 0.000000000000e+000 3.485660090313e+005 2.855302345671e+005 0.000000000000e+000 0.000000000000e+000 0.000000000000e+000 2.828935636992e+005 3.144446312863e+005 2.904178061301e+005 3.078281363877e+005 3.616883919913e+005 3.426970635257e+005 3.574729331204e+005 3.530889494173e+005 3.426888536617e+005 2.261152130764e+005 2.464910237708e+005 2.642542720139e+005 2.781575847614e+005 0.000000000000e+000 3.328187739021e+005 0.000000000000e+000 2.165623969696e+005 1.770714578948e+005 0.000000000000e+000 1.341198959962e+005 0.000000000000e+000 5.927854626566e+004 2.267518100218e+005 2.465316616909e+005 2.642201039220e+005 2.781364369518e+005 3.327404494835e+005 3.174680019013e+005 3.298838554323e+005 3.298775474299e+005 5.822342486315e+004 3.169935287502e+005 1.341439141278e+005 1.769910727381e+005 2.165431261971e+005 0.000000000000e+000 0.000000000000e+000 3.648542405880e+005 3.648688999735e+005 0.000000000000e+000 3.612118024252e+005 0.000000000000e+000 0.000000000000e+000 3.597142698563e+005 0.000000000000e+000 3.574622543028e+005 3.612161008197e+005 3.080194071546e+005 2.898553429011e+005 3.421361168436e+005 3.573810856207e+005 3.084793066855e+005 3.486564175455e+005 3.487977033442e+005 2.900960815998e+005 3.529861164769e+005 3.043099500867e+005 2.980910789628e+005 3.531275822668e+005 3.239339122471e+005 1.909401378956e+005 1.582575870934e+005 1.084483616726e+005 0.000000000000e+000 0.000000000000e+000 2.059868617835e+005 2.855750610203e+005 2.703433742641e+005 2.558610099858e+005 2.392351149898e+005 3.017456715925e+005 3.487386301743e+005 2.948178897466e+005 3.012014605322e+005 0.000000000000e+000 0.000000000000e+000 3.385878338186e+005 3.140303678133e+005 3.597374091333e+005 3.618924869157e+005 0.000000000000e+000 3.530351591817e+005 2.233729126299e+005 2.456026572735e+005 2.611723738288e+005 2.749346419259e+005 1.986419032261e+005 1.987287882651e+005 2.198792416402e+005 1.647685343951e+005 1.215783222010e+005 3.086468555541e+005 6.396372939594e+003 3.203492295537e+005 0.000000000000e+000 3.324725019559e+005 0.000000000000e+000 0.000000000000e+000 5.893985084026e+003 1.215234699345e+005 1.660258350898e+005 3.324949089291e+005 3.203534996408e+005 2.749252421223e+005 2.611984180897e+005 2.456402843885e+005 0.000000000000e+000 3.421174476542e+005 2.861133147051e+005 0.000000000000e+000 0.000000000000e+000 0.000000000000e+000 3.391604705578e+005 3.428024670694e+005 3.574494590569e+005 2.983153460029e+005 0.000000000000e+000 0.000000000000e+000 9.504087448511e+004 1.513118376349e+005 1.879867293017e+005 3.365880758450e+005 3.241154998562e+005 3.147159984879e+005 2.327552901987e+005 2.676437130458e+005 2.830680778275e+005 2.528941225302e+005 2.093964873140e+005 0.000000000000e+000 0.000000000000e+000 0.000000000000e+000 0.000000000000e+000 1.247504200528e+005 1.694576429240e+005 3.203696916117e+005 2.753198746687e+005 2.605263910929e+005 2.425044537519e+005 3.642373747991e+005 3.015494780527e+005 1.988945347531e+005 1.983491840424e+005 2.896007805284e+005 0.000000000000e+000 3.676390089887e+005 3.111027652375e+005 2.851676715861e+005 1.837774847682e+005 1.478609354819e+005 8.945424882086e+004 0.000000000000e+000 0.000000000000e+000 3.150448619644e+005 3.261846594841e+005 3.365758076220e+005 2.524359095887e+005 2.329340581830e+005 2.827788144785e+005 2.676223455110e+005 0.000000000000e+000 0.000000000000e+000 2.675733109324e+005 2.524072543820e+005 8.941652818854e+004 2.329372086195e+005 1.478221110314e+005 1.837119720911e+005 3.261971401117e+005 2.094601048897e+005 2.095052949371e+005 3.485056310332e+005 3.048807585498e+005 3.508096814452e+005 2.832346670577e+005 2.989452755540e+005 0.000000000000e+000 0.000000000000e+000 2.943027920130e+005 2.907621603739e+005 2.986566977813e+005 1.942717145152e+005 2.238176662048e+005 2.201617443665e+005 2.013727786594e+005 2.389950766564e+005 2.562817268369e+005 2.745797117102e+005 1.721251467639e+005 3.302403665494e+005 3.198390147440e+005 0.000000000000e+000 4.805303020654e+004 1.307278811944e+005 0.000000000000e+000 3.302348184317e+005 4.812588190374e+004 3.198249778497e+005 2.745525123322e+005 2.562410085685e+005 2.393633979700e+005 1.307373906280e+005 1.721414434871e+005 3.643278583011e+005 3.573378587491e+005 0.000000000000e+000 3.643286077371e+005 2.234986158841e+005 2.235199474272e+005 3.303638673549e+005 3.303831900428e+005 2.312537645801e+004 2.378142473354e+004 0.000000000000e+000 3.529423355512e+005 3.596596494824e+005 3.421110134726e+005 3.510402557415e+005 0.000000000000e+000 3.676320376240e+005 0.000000000000e+000 3.676341277629e+005 3.550975404884e+005 0.000000000000e+000 0.000000000000e+000 1.696892000589e+005 1.241110366278e+005 3.203217950645e+005 2.425126502751e+005 2.754305399113e+005 2.608053522707e+005 0.000000000000e+000 3.463310922865e+005 3.463014018282e+005 3.574671114680e+005 2.903434121568e+005 3.081317255560e+005 3.575019444144e+005 3.425793817829e+005 3.364988989064e+005 3.043969926808e+005 3.458469545996e+005 0.000000000000e+000 0.000000000000e+000 3.073064646348e+005 2.905837572016e+005 0.000000000000e+000 3.087556965607e+005 2.904601295548e+005 2.943911169761e+005 0.000000000000e+000 3.389292350859e+005 0.000000000000e+000 2.709161499997e+005 2.552144144163e+005 2.395050900686e+005 2.023359305672e+005 3.240836428717e+005 1.045850824125e+005 3.138645768246e+005 1.591361963805e+005 1.949785504567e+005 0.000000000000e+000 3.488062673412e+005 2.948865259767e+005 3.012933022449e+005 3.087012511147e+005 3.531105439200e+005 0.000000000000e+000 3.676243883160e+005 0.000000000000e+000 3.677809217764e+005 3.597718845479e+005 3.424527369901e+005 2.991306473972e+005 3.044131044394e+005 0.000000000000e+000 3.152100152404e+005 2.824684228622e+005 3.463154654303e+005 2.903097295082e+005 3.509595738341e+005 1.805827720785e+005 1.401802326783e+005 7.160630618256e+004 3.152319908398e+005 3.267338647858e+005 5.704620371035e+004 0.000000000000e+000 1.340523971946e+005 0.000000000000e+000 1.768939661980e+005 3.299184230260e+005 3.169953790035e+005 3.322206030490e+005 2.781093606324e+005 2.464850999489e+005 2.614086591177e+005 2.270291291692e+005 0.000000000000e+000 0.000000000000e+000 3.330024508463e+005 2.164397105774e+005 2.784781871856e+005 2.647128105986e+005 2.463460959480e+005 2.316719898513e+005 2.165510306316e+005 2.094892586286e+005 2.329271235386e+005 2.676624126475e+005 2.525054566434e+005 2.827759217118e+005 0.000000000000e+000 0.000000000000e+000 8.938545111010e+004 1.836870569738e+005 1.477735388376e+005 3.365735808618e+005 3.261852769443e+005 3.150524688520e+005 3.081529820821e+005 3.427116711470e+005 0.000000000000e+000 3.597750596576e+005 2.167193088065e+005 2.268956440672e+005 2.463959153586e+005 2.640221924281e+005 2.780339189574e+005 0.000000000000e+000 0.000000000000e+000 3.321391867053e+005 5.494396157639e+004 1.339505394155e+005 1.767583770252e+005 3.300940253076e+005 3.170578106498e+005 2.985501969331e+005 0.000000000000e+000 3.015643355319e+005 0.000000000000e+000 2.128290681635e+005 2.094394456044e+005 2.327915672342e+005 2.521506459816e+005 2.674132080232e+005 2.825348839669e+005 0.000000000000e+000 0.000000000000e+000 9.089752367562e+004 1.519009899948e+005 1.833000953520e+005 3.261303444702e+005 1.837497658031e+005 2.675535158103e+005 2.497870184553e+005 2.328128276881e+005 1.478973360719e+005 8.948590366784e+004 3.150264220222e+005 0.000000000000e+000 3.261695104947e+005 0.000000000000e+000 3.365748201679e+005 3.509896837081e+005 0.000000000000e+000 3.362682384735e+005 0.000000000000e+000 2.645793029179e+005 2.320795891159e+005 2.491555581459e+005 2.787515882444e+005 3.260205028678e+005 7.897589515925e+004 3.147507248945e+005 1.435921208527e+005 1.800296579060e+005 2.128380806908e+005 3.597020137564e+005 0.000000000000e+000 3.676324332941e+005 0.000000000000e+000 0.000000000000e+000 0.000000000000e+000 3.016973524114e+005 2.949936837140e+005 3.464378096778e+005 3.365297667569e+005 0.000000000000e+000 3.592844189263e+005 0.000000000000e+000 0.000000000000e+000 3.425663513341e+005 1.950249792019e+005 1.627803506839e+005 3.112003944818e+005 1.154251059272e+005 3.236100023845e+005 2.394276938860e+005 2.552341392569e+005 2.708929631115e+005 2.022999598302e+005 0.000000000000e+000 3.390872535642e+005 0.000000000000e+000 3.087006613406e+005 2.896486014263e+005 3.016881352705e+005 3.552274876381e+005 3.574589381724e+005 0.000000000000e+000 3.640255349655e+005 0.000000000000e+000 3.640263059502e+005 2.824343811077e+005 3.152003852333e+005 2.851486875421e+005 3.530739935730e+005 0.000000000000e+000 3.642320438336e+005 3.046439462806e+005 2.946867982295e+005 3.017757245638e+005 3.464384753952e+005 3.551400570888e+005 3.508132211103e+005 3.113963679697e+005 3.551367110324e+005 3.488303270450e+005 3.017997556056e+005 3.575513148280e+005 3.552961074833e+005 2.987480880239e+005 3.076835152311e+005 2.945490236983e+005 3.044489488741e+005 0.000000000000e+000 3.616747325333e+005 3.390204044801e+005 2.093988437379e+005 2.014351587966e+005 0.000000000000e+000 0.000000000000e+000 0.000000000000e+000 0.000000000000e+000 1.115467885670e+005 1.627343523179e+005 3.236049414253e+005 1.872769938880e+005 1.942492425116e+005 2.829482797595e+005 2.852633073365e+005 2.703064995589e+005 2.745483047054e+005 2.561913523281e+005 2.522512397003e+005 2.360868532127e+005 2.398278999221e+005 3.619332967170e+005 0.000000000000e+000 0.000000000000e+000 0.000000000000e+000 0.000000000000e+000 3.643553285880e+005 0.000000000000e+000 2.272698054541e+005 2.462594638851e+005 2.645935834105e+005 2.776574092053e+005 2.165534186778e+005 2.051832537295e+005 1.916536822148e+005 1.592671085909e+005 3.112516872293e+005 1.054488339040e+005 3.240332638390e+005 0.000000000000e+000 3.329748904149e+005 0.000000000000e+000 0.000000000000e+000 0.000000000000e+000 0.000000000000e+000 1.054748156650e+005 1.59269