<?xml version="1.0"?>
<VTKFile type="UnstructuredGrid" version="0.1" byte_order="LittleEndian">
  <UnstructuredGrid>
    <Piece NumberOfPoints="2604" NumberOfCells="4910">
      <Points>
        <DataArray type="Float64" NumberOfComponents="3" format="ascii">
          0.000000000000e+000 0.000000000000e+000 0.000000000000e+000
          2.000000000000e+002 0.000000000000e+000 0.000000000000e+000
          2.000000000000e+002 2.000000000000e+001 0.000000000000e+000
          0.000000000000e+000 2.000000000000e+001 0.000000000000e+000
          1.492537313427e+000 0.000000000000e+000 0.000000000000e+000
          2.985074626854e+000 0.000000000000e+000 0.000000000000e+000
          4.477611940281e+000 0.000000000000e+000 0.000000000000e+000
          5.970149253708e+000 0.000000000000e+000 0.000000000000e+000
          7.462686567135e+000 0.000000000000e+000 0.000000000000e+000
          8.955223880561e+000 0.000000000000e+000 0.000000000000e+000
          1.044776119399e+001 0.000000000000e+000 0.000000000000e+000
          1.194029850741e+001 0.000000000000e+000 0.000000000000e+000
          1.343283582084e+001 0.000000000000e+000 0.000000000000e+000
          1.492537313427e+001 0.000000000000e+000 0.000000000000e+000
          1.641791044770e+001 0.000000000000e+000 0.000000000000e+000
          1.791044776112e+001 0.000000000000e+000 0.000000000000e+000
          1.940298507455e+001 0.000000000000e+000 0.000000000000e+000
          2.089552238798e+001 0.000000000000e+000 0.000000000000e+000
          2.238805970141e+001 0.000000000000e+000 0.000000000000e+000
          2.388059701484e+001 0.000000000000e+000 0.000000000000e+000
          2.537313432826e+001 0.000000000000e+000 0.000000000000e+000
          2.686567164169e+001 0.000000000000e+000 0.000000000000e+000
          2.835820895511e+001 0.000000000000e+000 0.000000000000e+000
          2.985074626854e+001 0.000000000000e+000 0.000000000000e+000
          3.134328358196e+001 0.000000000000e+000 0.000000000000e+000
          3.283582089539e+001 0.000000000000e+000 0.000000000000e+000
          3.432835820881e+001 0.000000000000e+000 0.000000000000e+000
          3.582089552224e+001 0.000000000000e+000 0.000000000000e+000
          3.731343283566e+001 0.000000000000e+000 0.000000000000e+000
          3.880597014909e+001 0.000000000000e+000 0.000000000000e+000
          4.029850746251e+001 0.000000000000e+000 0.000000000000e+000
          4.179104477594e+001 0.000000000000e+000 0.000000000000e+000
          4.328358208936e+001 0.000000000000e+000 0.000000000000e+000
          4.477611940279e+001 0.000000000000e+000 0.000000000000e+000
          4.626865671621e+001 0.000000000000e+000 0.000000000000e+000
          4.776119402964e+001 0.000000000000e+000 0.000000000000e+000
          4.925373134306e+001 0.000000000000e+000 0.000000000000e+000
          5.074626865649e+001 0.000000000000e+000 0.000000000000e+000
          5.223880596991e+001 0.000000000000e+000 0.000000000000e+000
          5.373134328334e+001 0.000000000000e+000 0.000000000000e+000
          5.522388059676e+001 0.000000000000e+000 0.000000000000e+000
          5.671641791019e+001 0.000000000000e+000 0.000000000000e+000
          5.820895522361e+001 0.000000000000e+000 0.000000000000e+000
          5.970149253704e+001 0.000000000000e+000 0.000000000000e+000
          6.119402985046e+001 0.000000000000e+000 0.000000000000e+000
          6.268656716389e+001 0.000000000000e+000 0.000000000000e+000
          6.417910447732e+001 0.000000000000e+000 0.000000000000e+000
          6.567164179075e+001 0.000000000000e+000 0.000000000000e+000
          6.716417910418e+001 0.000000000000e+000 0.000000000000e+000
          6.865671641761e+001 0.000000000000e+000 0.000000000000e+000
          7.014925373104e+001 0.000000000000e+000 0.000000000000e+000
          7.164179104447e+001 0.000000000000e+000 0.000000000000e+000
          7.313432835790e+001 0.000000000000e+000 0.000000000000e+000
          7.462686567133e+001 0.000000000000e+000 0.000000000000e+000
          7.611940298476e+001 0.000000000000e+000 0.000000000000e+000
          7.761194029819e+001 0.000000000000e+000 0.000000000000e+000
          7.910447761162e+001 0.000000000000e+000 0.000000000000e+000
          8.059701492505e+001 0.000000000000e+000 0.000000000000e+000
          8.208955223848e+001 0.000000000000e+000 0.000000000000e+000
          8.358208955191e+001 0.000000000000e+000 0.000000000000e+000
          8.507462686534e+001 0.000000000000e+000 0.000000000000e+000
          8.656716417877e+001 0.000000000000e+000 0.000000000000e+000
          8.805970149220e+001 0.000000000000e+000 0.000000000000e+000
          8.955223880563e+001 0.000000000000e+000 0.000000000000e+000
          9.104477611907e+001 0.000000000000e+000 0.000000000000e+000
          9.253731343250e+001 0.000000000000e+000 0.000000000000e+000
          9.402985074593e+001 0.000000000000e+000 0.000000000000e+000
          9.552238805936e+001 0.000000000000e+000 0.000000000000e+000
          9.701492537279e+001 0.000000000000e+000 0.000000000000e+000
          9.850746268622e+001 0.000000000000e+000 0.000000000000e+000
          9.999999999965e+001 0.000000000000e+000 0.000000000000e+000
          1.014925373131e+002 0.000000000000e+000 0.000000000000e+000
          1.029850746265e+002 0.000000000000e+000 0.000000000000e+000
          1.044776119399e+002 0.000000000000e+000 0.000000000000e+000
          1.059701492534e+002 0.000000000000e+000 0.000000000000e+000
          1.074626865668e+002 0.000000000000e+000 0.000000000000e+000
          1.089552238802e+002 0.000000000000e+000 0.000000000000e+000
          1.104477611937e+002 0.000000000000e+000 0.000000000000e+000
          1.119402985071e+002 0.000000000000e+000 0.000000000000e+000
          1.134328358205e+002 0.000000000000e+000 0.000000000000e+000
          1.149253731340e+002 0.000000000000e+000 0.000000000000e+000
          1.164179104474e+002 0.000000000000e+000 0.000000000000e+000
          1.179104477608e+002 0.000000000000e+000 0.000000000000e+000
          1.194029850742e+002 0.000000000000e+000 0.000000000000e+000
          1.208955223877e+002 0.000000000000e+000 0.000000000000e+000
          1.223880597011e+002 0.000000000000e+000 0.000000000000e+000
          1.238805970145e+002 0.000000000000e+000 0.000000000000e+000
          1.253731343280e+002 0.000000000000e+000 0.000000000000e+000
          1.268656716414e+002 0.000000000000e+000 0.000000000000e+000
          1.283582089548e+002 0.000000000000e+000 0.000000000000e+000
          1.298507462683e+002 0.000000000000e+000 0.000000000000e+000
          1.313432835817e+002 0.000000000000e+000 0.000000000000e+000
          1.328358208952e+002 0.000000000000e+000 0.000000000000e+000
          1.343283582086e+002 0.000000000000e+000 0.000000000000e+000
          1.358208955220e+002 0.000000000000e+000 0.000000000000e+000
          1.373134328355e+002 0.000000000000e+000 0.000000000000e+000
          1.388059701489e+002 0.000000000000e+000 0.000000000000e+000
          1.402985074624e+002 0.000000000000e+000 0.000000000000e+000
          1.417910447758e+002 0.000000000000e+000 0.000000000000e+000
          1.432835820892e+002 0.000000000000e+000 0.000000000000e+000
          1.447761194027e+002 0.000000000000e+000 0.000000000000e+000
          1.462686567161e+002 0.000000000000e+000 0.000000000000e+000
          1.477611940296e+002 0.000000000000e+000 0.000000000000e+000
          1.492537313430e+002 0.000000000000e+000 0.000000000000e+000
          1.507462686564e+002 0.000000000000e+000 0.000000000000e+000
          1.522388059699e+002 0.000000000000e+000 0.000000000000e+000
          1.537313432833e+002 0.000000000000e+000 0.000000000000e+000
          1.552238805968e+002 0.000000000000e+000 0.000000000000e+000
          1.567164179102e+002 0.000000000000e+000 0.000000000000e+000
          1.582089552237e+002 0.000000000000e+000 0.000000000000e+000
          1.597014925371e+002 0.000000000000e+000 0.000000000000e+000
          1.611940298505e+002 0.000000000000e+000 0.000000000000e+000
          1.626865671640e+002 0.000000000000e+000 0.000000000000e+000
          1.641791044774e+002 0.000000000000e+000 0.000000000000e+000
          1.656716417909e+002 0.000000000000e+000 0.000000000000e+000
          1.671641791043e+002 0.000000000000e+000 0.000000000000e+000
          1.686567164177e+002 0.000000000000e+000 0.000000000000e+000
          1.701492537312e+002 0.000000000000e+000 0.000000000000e+000
          1.716417910446e+002 0.000000000000e+000 0.000000000000e+000
          1.731343283581e+002 0.000000000000e+000 0.000000000000e+000
          1.746268656715e+002 0.000000000000e+000 0.000000000000e+000
          1.761194029849e+002 0.000000000000e+000 0.000000000000e+000
          1.776119402984e+002 0.000000000000e+000 0.000000000000e+000
          1.791044776118e+002 0.000000000000e+000 0.000000000000e+000
          1.805970149253e+002 0.000000000000e+000 0.000000000000e+000
          1.820895522387e+002 0.000000000000e+000 0.000000000000e+000
          1.835820895521e+002 0.000000000000e+000 0.000000000000e+000
          1.850746268656e+002 0.000000000000e+000 0.000000000000e+000
          1.865671641790e+002 0.000000000000e+000 0.000000000000e+000
          1.880597014925e+002 0.000000000000e+000 0.000000000000e+000
          1.895522388059e+002 0.000000000000e+000 0.000000000000e+000
          1.910447761194e+002 0.000000000000e+000 0.000000000000e+000
          1.925373134328e+002 0.000000000000e+000 0.000000000000e+000
          1.940298507462e+002 0.000000000000e+000 0.000000000000e+000
          1.955223880597e+002 0.000000000000e+000 0.000000000000e+000
          1.970149253731e+002 0.000000000000e+000 0.000000000000e+000
          1.985074626866e+002 0.000000000000e+000 0.000000000000e+000
          2.000000000000e+002 1.428571428570e+000 0.000000000000e+000
          2.000000000000e+002 2.857142857140e+000 0.000000000000e+000
[...]
      <PointData Scalars="Capillary_Pressure">
        <DataArray type="Float64" Name="Capillary_Pressure" format="ascii">
          3.744412277998e+005 0.000000000000e+000 0.000000000000e+000 3.744454601712e+005 3.746888976234e+005 3.718305400043e+005 3.709593412140e+005 3.689629632208e+005 3.686896786114e+005 3.667353769694e+005 3.646582299662e+005 3.645902316761e+005 3.623746586037e+005 3.622365183757e+005 3.603569968128e+005 3.579249093549e+005 3.579826978819e+005 3.559404103868e+005 3.555683691134e+005 3.534300129512e+005 3.499540275822e+005 3.498167151492e+005 3.492880006195e+005 3.462290797837e+005 3.459588559926e+005 3.437582702366e+005 3.431943928243e+005 3.400058108707e+005 3.395807711367e+005 3.375173161850e+005 3.369652699099e+005 3.337207555093e+005 3.332784118924e+005 3.313202054079e+005 3.306829229471e+005 3.270179779689e+005 3.270737349778e+005 3.244790599011e+005 3.220859813016e+005 3.219344323287e+005 3.212574100737e+005 3.180679642176e+005 3.154714445457e+005 3.151849034181e+005 3.115396908785e+005 3.111830312794e+005 3.083613735814e+005 3.080360277731e+005 3.056463985264e+005 3.048474480525e+005 3.007679123240e+005 3.007248346258e+005 2.968691462609e+005 2.964682990453e+005 2.924969650620e+005 2.912765811511e+005 2.891642682341e+005 2.888694718987e+005 2.878821279882e+005 2.841220235734e+005 2.809216505706e+005 2.807521098763e+005 2.767510715242e+005 2.761627304557e+005 2.733502035130e+005 2.700280380778e+005 2.670923681917e+005 2.666679466677e+005 2.621015592586e+005 2.606717129436e+005 2.581436540517e+005 2.550679887880e+005 2.544326696983e+005 2.516439801896e+005 2.479711638314e+005 2.447018981965e+005 2.443767127239e+005 2.409202537669e+005 2.377615446330e+005 2.366654892339e+005 2.309040424135e+005 2.276144151975e+005 2.246193457940e+005 2.210621238529e+005 2.176384476018e+005 2.139766261627e+005 2.134638634406e+005 2.100583122511e+005 2.062613722255e+005 2.027900653465e+005 1.955159690765e+005 1.917376545833e+005 1.878868259196e+005 1.835744098168e+005 1.810705948147e+005 1.734040967974e+005 1.689175290751e+005 1.665918310974e+005 1.582867592669e+005 1.519998956776e+005 1.490438313391e+005 1.385923582712e+005 1.319301075951e+005 1.246695045302e+005 1.155584640086e+005 1.059033910488e+005 9.523299755136e+004 8.205074576483e+004 6.717592653430e+004 4.795674866616e+004 2.183872687160e+004 0.000000000000e+000 0.000000000000e+000 0.000000000000e+000 0.000000000000e+000 0.000000000000e+000 0.000000000000e+000 0.000000000000e+000 0.000000000000e+000 0.000000000000e+000 0.000000000000e+000 0.000000000000e+000 0.000000000000e+000 0.000000000000e+000 0.000000000000e+000 0.000000000000e+000 0.000000000000e+000 0.000000000000e+000 0.000000000000e+000 0.000000000000e+000 0.000000000000e+000 0.000000000000e+000 0.000000000000e+000 0.000000000000e+000 0.000000000000e+000 0.000000000000e+000 0.000000000000e+000 0.000000000000e+000 0.000000000000e+000 0.000000000000e+000 0.000000000000e+000 0.000000000000e+000 0.000000000000e+000 0.000000000000e+000 0.000000000000e+000 0.000000000000e+000 0.000000000000e+000 0.000000000000e+000 0.000000000000e+000 0.000000000000e+000 0.000000000000e+000 0.000000000000e+000 0.000000000000e+000 0.000000000000e+000 0.000000000000e+000 0.000000000000e+000 0.000000000000e+000 0.000000000000e+000 0.000000000000e+000 0.000000000000e+000 0.000000000000e+000 0.000000000000e+000 0.000000000000e+000 0.000000000000e+000 0.000000000000e+000 0.000000000000e+000 0.000000000000e+000 0.000000000000e+000 0.000000000000e+000 0.000000000000e+000 0.000000000000e+000 0.000000000000e+000 0.000000000000e+000 0.000000000000e+000 0.000000000000e+000 0.000000000000e+000 2.181005225171e+004 4.791727417714e+004 6.717033159021e+004 8.203689158106e+004 9.523777359075e+004 1.059310188250e+005 1.155486324614e+005 1.246704396678e+005 1.319229684871e+005 1.385791868080e+005 1.490424054640e+005 1.519908352899e+005 1.582660195566e+005 1.665818178311e+005 1.689104422480e+005 1.734131764199e+005 1.810602270702e+005 1.835688282851e+005 1.878773005048e+005 1.917111272335e+005 1.955159220844e+005 2.027972790182e+005 2.062638161258e+005 2.100587336568e+005 2.134558151941e+005 2.139853623175e+005 2.176447096349e+005 2.210870853022e+005 2.246194674795e+005 2.276238992578e+005 2.308765170049e+005 2.366485819698e+005 2.377568347445e+005 2.409393715742e+005 2.443624185941e+005 2.446893025205e+005 2.479641909367e+005 2.516315066412e+005 2.544474647939e+005 2.576887306409e+005 2.581469351685e+005 2.606636963095e+005 2.620682989830e+005 2.666812463097e+005 2.697785871057e+005 2.700433683683e+005 2.732678319831e+005 2.761820037111e+005 2.767678926281e+005 2.807405888999e+005 2.809307688007e+005 2.841630876532e+005 2.878802030497e+005 2.888702082798e+005 2.891901546872e+005 2.912851163368e+005 2.956519536597e+005 2.964854757242e+005 2.968628479479e+005 3.007426556757e+005 3.008135000659e+005 3.048363152893e+005 3.056131754056e+005 3.080264196353e+005 3.083436631176e+005 3.111559662654e+005 3.144374120521e+005 3.151835540851e+005 3.154346113774e+005 3.180760853357e+005 3.212427411992e+005 3.219458631514e+005 3.220712232483e+005 3.244687446886e+005 3.270821823583e+005 3.270119398533e+005 3.306847497925e+005 3.313143718812e+005 3.332762284523e+005 3.337216766289e+005 3.369644313507e+005 3.375156133513e+005 3.395805399547e+005 3.399960984820e+005 3.432013003404e+005 3.437500370124e+005 3.459544415042e+005 3.462350442994e+005 3.492911557374e+005 3.498105941818e+005 3.499565072596e+005 3.534201530451e+005 3.555636293225e+005 3.559350505856e+005 3.579898503821e+005 3.579211394269e+005 3.602651932850e+005 3.603133183696e+005 3.623786867091e+005 3.646025246443e+005 3.646313338532e+005 3.667509346417e+005 3.686933487853e+005 3.689732702511e+005 3.709191525651e+005 3.718375190490e+005 3.746869368402e+005 3.744475437422e+005 3.744458260659e+005 3.744466471887e+005 3.744464273904e+005 3.744410821003e+005 3.744441382335e+005 3.744451094572e+005 3.744411751878e+005 3.744437044932e+005 3.744491887196e+005 3.744424196826e+005 3.744445181082e+005 3.744439998054e+005 0.000000000000e+000 3.667312571071e+005 0.000000000000e+000 0.000000000000e+000 3.750051943209e+004 1.286935276297e+005 1.735593323451e+005 3.496295307638e+005 2.022993641037e+005 3.375136104721e+005 3.272988065931e+005 3.154118444443e+005 2.961930428211e+005 2.813078005724e+005 2.662327209120e+005 2.477011298896e+005 2.280859904586e+005 3.581586561825e+005 3.056260657008e+005 2.139687266328e+005 2.171066477779e+005 2.377383220915e+005 2.577426715616e+005 2.732454581919e+005 2.888770624924e+005 0.000000000000e+000 0.000000000000e+000 9.394198692642e+004 2.888682063159e+005 2.734484440824e+005 2.575621231236e+005 2.373236353171e+005 1.518294372989e+005 1.878483321392e+005 3.437639595189e+005 3.333343407805e+005 3.218813043794e+005 1.878487472759e+005 1.519806984497e+005 9.521118613890e+004 0.000000000000e+000 0.000000000000e+000 3.219648924229e+005 3.332804895859e+005 3.437468670793e+005 0.000000000000e+000 0.000000000000e+000 3.084415836031e+005 3.011835081113e+005 3.622150495283e+005 3.534082401885e+005 0.000000000000e+000 3.689647900584e+005 0.000000000000e+000 3.689787095665e+005 3.619744723082e+005 3.534531606010e+005 3.112866680116e+005 3.005155109476e+005 0.000000000000e+000 2.281031527131e+005 0.000000000000e+000 2.476933763584e+005 2.662308652471e+005 2.812974762353e+005 2.958470419805e+005 2.023297903675e+005 3.550777287573e+004 1.277908653840e+005 1.735549843922e+005 3.375351429234e+005 3.273455028348e+005 2.033039750240e+005 1.736860225963e+005 1.286291224448e+005 3.616671938639e+004 2.813117584262e+005 2.662206490620e+005 2.477154871931e+005 0.000000000000e+000 2.280518031620e+005 0.000000000000e+000 3.154686302176e+005 3.272979334226e+005 3.375288449833e+005 3.496378074836e+005 0.000000000000e+000 0.000000000000e+000 3.646344019487e+005 3.492900890063e+005 2.923497204921e+005 3.176564483640e+005 0.000000000000e+000 3.709798111816e+005 3.581469498807e+005 3.666927935950e+005 3.581703830413e+005 3.055476934029e+005 3.110307727067e+005 3.009420091075e+005 3.623879347450e+005 3.534027884727e+005 3.056120742376e+005 0.000000000000e+000 8.421559563488e+004 0.000000000000e+000 1.491378115009e+005 0.000000000000e+000 1.839966191487e+005 2.367736910018e+005 2.702738035583e+005 2.848989582595e+005 2.545860375744e+005 3.432120110965e+005 3.220343804308e+005 3.332200218281e+005 2.175429159582e+005 3.056563524761e+005 0.000000000000e+000 3.718224713283e+005 0.000000000000e+000 3.718214052429e+005 2.322129965681e+005 2.515451894488e+005 2.702846877118e+005 2.844789406408e+005 1.956863621848e+005 2.210366420514e+005 2.099789026493e+005 1.630980887488e+005 3.182185126064e+005 1.096559004346e+005 3.311437086235e+005 0.000000000000e+000 3.402505732613e+005 0.000000000000e+000 0.000000000000e+000 0.000000000000e+000 0.000000000000e+000 0.000000000000e+000 1.105041122373e+005 7.748962432159e+004 1.632216640214e+005 1.456305037587e+005 3.402011738744e+005 1.845437585013e+005 1.956964974642e+005 3.311083492605e+005 3.338587246754e+005 2.844284135773e+005 2.702785761995e+005 2.515460569885e+005 2.764517869480e+005 2.584410051197e+005 2.363261998041e+005 2.404550193586e+005 3.221266339744e+005 2.099874680397e+005 2.208325310650e+005 0.000000000000e+000 3.461074382547e+005 0.000000000000e+000 3.337990590988e+005 7.972066825060e+004 3.222060580913e+005 1.449724997258e+005 2.915757738334e+005 2.765819059844e+005 2.585683414987e+005 2.437536786040e+005 1.847110703196e+005 3.581347491420e+005 0.000000000000e+000 0.000000000000e+000 3.003855509893e+005 3.139321507055e+005 3.532614922335e+005 2.100729589503e+005 2.584467578956e+005 2.403702160519e+005 2.763875714047e+005 2.915628829031e+005 3.460831998528e+005 3.311714122375e+005 0.000000000000e+000 3.182103927917e+005 0.000000000000e+000 1.112643811274e+005 1.956009658568e+005 1.591292337481e+005 3.459554676747e+005 0.000000000000e+000 0.000000000000e+000 3.044390697067e+005 3.623771114041e+005 0.000000000000e+000 2.099390185341e+005 1.990715005111e+005 1.666864927038e+005 3.179032793039e+005 1.163521376076e+005 3.306310322429e+005 2.767921396174e+005 2.606670635689e+005 2.444532954300e+005 0.000000000000e+000 3.462294706630e+005 0.000000000000e+000 3.557242506440e+005 2.917558508374e+005 0.000000000000e+000 0.000000000000e+000 0.000000000000e+000 2.890826631216e+005 3.212907300769e+005 2.968187510316e+005 3.145222862271e+005 3.687098910433e+005 3.499188545628e+005 3.645610282420e+005 3.602346937904e+005 3.499141073900e+005 2.308737412698e+005 2.516378084519e+005 2.698115069277e+005 2.841587321327e+005 0.000000000000e+000 3.400023764767e+005 0.000000000000e+000 2.211390733144e+005 1.811009526811e+005 0.000000000000e+000 1.384807537426e+005 0.000000000000e+000 6.714229361545e+004 2.314787686624e+005 2.516746535433e+005 2.697725179598e+005 2.841272724123e+005 3.399260421350e+005 3.244370392101e+005 3.369737269263e+005 3.369679367198e+005 6.619418781807e+004 3.239846136640e+005 1.385042481611e+005 1.810127805984e+005 2.211132351874e+005 0.000000000000e+000 0.000000000000e+000 3.718236760047e+005 3.718359588353e+005 0.000000000000e+000 3.682478935258e+005 0.000000000000e+000 0.000000000000e+000 3.667791663397e+005 0.000000000000e+000 3.645604537575e+005 3.682533948254e+005 3.147169381114e+005 2.962441086394e+005 3.493600108351e+005 3.644740426721e+005 3.152342127190e+005 3.558235396345e+005 3.559675089671e+005 2.963993151226e+005 3.601251912434e+005 3.109507890370e+005 3.045392479801e+005 3.602721280980e+005 3.309471747082e+005 1.951403958491e+005 1.623705732546e+005 1.134293326581e+005 0.000000000000e+000 0.000000000000e+000 2.102990193119e+005 2.917903064802e+005 2.761867900388e+005 2.612419451892e+005 2.441391895475e+005 3.083696821562e+005 3.559040963569e+005 3.013393979328e+005 3.078700011411e+005 0.000000000000e+000 0.000000000000e+000 3.457893669600e+005 3.208055975340e+005 3.668045888342e+005 3.689213550657e+005 0.000000000000e+000 3.601762752792e+005 2.280594824611e+005 2.506483797267e+005 2.666981199345e+005 2.809323901879e+005 2.028227986946e+005 2.030377294813e+005 2.244971026246e+005 1.688607374722e+005 1.261261590986e+005 3.154669631452e+005 2.002367934221e+004 3.273914473164e+005 0.000000000000e+000 3.396051013845e+005 0.000000000000e+000 0.000000000000e+000 1.955559541091e+004 1.260702271433e+005 1.700713268088e+005 3.396253271734e+005 3.273964736351e+005 2.809181664295e+005 2.667224426367e+005 2.506801851730e+005 0.000000000000e+000 3.492772374556e+005 2.924335874510e+005 0.000000000000e+000 0.000000000000e+000 0.000000000000e+000 3.463876300997e+005 3.500266643326e+005 3.645478965501e+005 3.047910238672e+005 0.000000000000e+000 0.000000000000e+000 1.005803941174e+005 1.554629345072e+005 1.921061991980e+005 3.437907595547e+005 3.312061114452e+005 3.215660143814e+005 2.376679327431e+005 2.734060853524e+005 2.892142974066e+005 2.582096002307e+005 2.137792836421e+005 0.000000000000e+000 0.000000000000e+000 0.000000000000e+000 0.000000000000e+000 1.292260162157e+005 1.734546505658e+005 3.273757382050e+005 2.811927569684e+005 2.659617648836e+005 2.475279727584e+005 3.712094261184e+005 3.081231272130e+005 2.031011143871e+005 2.026430948571e+005 2.958578997744e+005 0.000000000000e+000 3.745335024439e+005 3.179229079687e+005 2.914362535130e+005 1.879168214394e+005 1.520488070036e+005 9.525449898105e+004 0.000000000000e+000 0.000000000000e+000 3.219267336034e+005 3.332558527193e+005 3.437544992107e+005 2.576832271628e+005 2.377650527704e+005 2.888728886306e+005 2.733349365692e+005 0.000000000000e+000 0.000000000000e+000 2.732936463358e+005 2.576583113828e+005 9.521622812479e+004 2.377692103375e+005 1.520053761535e+005 1.878480041740e+005 3.332716040336e+005 2.139346889233e+005 2.139880090970e+005 3.556847039264e+005 3.116477771140e+005 3.579511863564e+005 2.894684714845e+005 3.054800483682e+005 0.000000000000e+000 0.000000000000e+000 3.007129807638e+005 2.972089479815e+005 3.051606210937e+005 1.985086378378e+005 2.285330015653e+005 2.247213518150e+005 2.056951841438e+005 2.440293659119e+005 2.617557369490e+005 2.804001578510e+005 1.762144494435e+005 3.373533641692e+005 3.267819837333e+005 0.000000000000e+000 5.701721280525e+004 1.351392039467e+005 0.000000000000e+000 3.373484248810e+005 5.708588726913e+004 3.267711719664e+005 2.803805250862e+005 2.617216290238e+005 2.444056028043e+005 1.351470670754e+005 1.762307786859e+005 3.713004915014e+005 3.644284667175e+005 0.000000000000e+000 3.712981584676e+005 2.280813792842e+005 2.281248900124e+005 3.375355400072e+005 3.375512844496e+005 3.496512906113e+004 3.553181920854e+004 0.000000000000e+000 3.600778084845e+005 3.667209434165e+005 3.492678453209e+005 3.581889948771e+005 0.000000000000e+000 3.745288242581e+005 0.000000000000e+000 3.745297158119e+005 3.622201563794e+005 0.000000000000e+000 0.000000000000e+000 1.737131770348e+005 1.286499963615e+005 3.273155154743e+005 2.475671856978e+005 2.813364541324e+005 2.662673344836e+005 0.000000000000e+000 3.535127932066e+005 3.534752143849e+005 3.645619966079e+005 2.966951923754e+005 3.148490737024e+005 3.645927882293e+005 3.497884836989e+005 3.436680196987e+005 3.110582429511e+005 3.529998442248e+005 0.000000000000e+000 0.000000000000e+000 3.139623016860e+005 2.970029434838e+005 0.000000000000e+000 3.155819252008e+005 2.968693317011e+005 3.008036819276e+005 0.000000000000e+000 3.461056511912e+005 0.000000000000e+000 2.767802376208e+005 2.606636983399e+005 2.444415715565e+005 2.066719252362e+005 3.311225071789e+005 1.097178797423e+005 3.206670002769e+005 1.631514606066e+005 1.991318154944e+005 0.000000000000e+000 3.559715286477e+005 3.014149113771e+005 3.078713127781e+005 3.154839705950e+005 3.602720026142e+005 0.000000000000e+000 3.745236014184e+005 0.000000000000e+000 3.746745720753e+005 3.668409835193e+005 3.496219247825e+005 3.057030727390e+005 3.110644233656e+005 0.000000000000e+000 3.221193841062e+005 2.885333238549e+005 3.534899715528e+005 2.966477880346e+005 3.581023594001e+005 1.846237510539e+005 1.444307441652e+005 7.851534137202e+004 3.222234855429e+005 3.338747309044e+005 6.514150619490e+004 0.000000000000e+000 1.384054020711e+005 0.000000000000e+000 1.809073565295e+005 3.370095936117e+005 3.239952890819e+005 3.394164713016e+005 2.840945628885e+005 2.516083571523e+005 2.670296800594e+005 2.317274799205e+005 0.000000000000e+000 0.000000000000e+000 3.402085889653e+005 2.209109080728e+005 2.845479008492e+005 2.703524708904e+005 2.516094623085e+005 2.363439296064e+005 2.211492018738e+005 2.139672002905e+005 2.377578225215e+005 2.733651716651e+005 2.577443002158e+005 2.888723582730e+005 0.000000000000e+000 0.000000000000e+000 9.517913523309e+004 1.878337446457e+005 1.519564029156e+005 3.437497908163e+005 3.332628091399e+005 3.219390896452e+005 3.148778858977e+005 3.499273601390e+005 0.000000000000e+000 3.668402369482e+005 2.213164306502e+005 2.315934859452e+005 2.515132136785e+005 2.695595196714e+005 2.840060434306e+005 0.000000000000e+000 0.000000000000e+000 3.393294710765e+005 6.323445473562e+004 1.382873152509e+005 1.807663513965e+005 3.371891206605e+005 3.240571854989e+005 3.051718738393e+005 0.000000000000e+000 3.081513466704e+005 0.000000000000e+000 2.172273217189e+005 2.139011839754e+005 2.375977599581e+005 2.573760110800e+005 2.731060937694e+005 2.886082367028e+005 0.000000000000e+000 0.000000000000e+000 9.664034322329e+004 1.559638290912e+005 1.874374012364e+005 3.331902074136e+005 1.879272502463e+005 2.732466892387e+005 2.551447712040e+005 2.376278177129e+005 1.520914045854e+005 9.528953895256e+004 3.219002756849e+005 0.000000000000e+000 3.332383499928e+005 0.000000000000e+000 3.437530228358e+005 3.581493997099e+005 0.000000000000e+000 3.434126687739e+005 0.000000000000e+000 2.702654708268e+005 2.368239050231e+005 2.543819670166e+005 2.848829252248e+005 3.331405509370e+005 8.538656814956e+004 3.217180251575e+005 1.478027607870e+005 1.841692589050e+005 2.173315271272e+005 3.667604979167e+005 0.000000000000e+000 3.745301845210e+005 0.000000000000e+000 0.000000000000e+000 0.000000000000e+000 3.082960008083e+005 3.015401846802e+005 3.536188285719e+005 3.437014987300e+005 0.000000000000e+000 3.663535463310e+005 0.000000000000e+000 0.000000000000e+000 3.497477761543e+005 1.991815410083e+005 1.668007466037e+005 3.180231529482e+005 1.201179692546e+005 3.306015062280e+005 2.443563598636e+005 2.606788305131e+005 2.767435734444e+005 2.066469349729e+005 0.000000000000e+000 3.463003044134e+005 0.000000000000e+000 3.154900668452e+005 2.959144856673e+005 3.083745766046e+005 3.623481983350e+005 3.645540471542e+005 0.000000000000e+000 3.710051262084e+005 0.000000000000e+000 3.710067965823e+005 2.884960294365e+005 3.221068695795e+005 2.914249460709e+005 3.602178133737e+005 0.000000000000e+000 3.712071769528e+005 3.113431550043e+005 3.011359636497e+005 3.084687805313e+005 3.536304223571e+005 3.622551864874e+005 3.579770300587e+005 3.182999103079e+005 3.622557583506e+005 3.559990289614e+005 3.084195173468e+005 3.646541588757e+005 3.624264646634e+005 3.052599498526e+005 3.143565247773e+005 3.009821386673e+005 3.111153749467e+005 0.000000000000e+000 3.686995886356e+005 3.462072306156e+005 2.137579002674e+005 2.057614372710e+005 0.000000000000e+000 0.000000000000e+000 0.000000000000e+000 0.000000000000e+000 1.164387310409e+005 1.667522636041e+005 3.306038574623e+005 1.914363596400e+005 1.984784814538e+005 2.891451647829e+005 2.915458380326e+005 2.760679785942e+005 2.803587227981e+005 2.616617531763e+005 2.576433717867e+005 2.409546652328e+005 2.448151439081e+005 3.689601781508e+005 0.000000000000e+000 0.000000000000e+000 0.000000000000e+000 0.000000000000e+000 3.713276636838e+005 0.000000000000e+000 2.320460626377e+005 2.514889579464e+005 2.702082571126e+005 2.837414722132e+005 2.210468428824e+005 2.095476898582e+005 1.958034443655e+005 1.632947657993e+005 3.181231495603e+005 1.105523667748e+005 3.310681345898e+005 0.000000000000e+000 3.401790431781e+005 0.000000000000e+000 0.000000000000e+000 0.000000000000e+000 0.000000000000e+000 1.105749837348e+005 1.63294