<?xml version="1.0"?>
<VTKFile type="UnstructuredGrid" version="0.1" byte_order="LittleEndian">
  <UnstructuredGrid>
    <Piece NumberOfPoints="2604" NumberOfCells="4910">
      <Points>
        <DataArray type="Float64" NumberOfComponents="3" format="ascii">
          0.000000000000e+000 0.000000000000e+000 0.000000000000e+000
          2.000000000000e+002 0.000000000000e+000 0.000000000000e+000
          2.000000000000e+002 2.000000000000e+001 0.000000000000e+000
          0.000000000000e+000 2.000000000000e+001 0.000000000000e+000
          1.492537313427e+000 0.000000000000e+000 0.000000000000e+000
          2.985074626854e+000 0.000000000000e+000 0.000000000000e+000
          4.477611940281e+000 0.000000000000e+000 0.000000000000e+000
          5.970149253708e+000 0.000000000000e+000 0.000000000000e+000
          7.462686567135e+000 0.000000000000e+000 0.000000000000e+000
          8.955223880561e+000 0.000000000000e+000 0.000000000000e+000
          1.044776119399e+001 0.000000000000e+000 0.000000000000e+000
          1.194029850741e+001 0.000000000000e+000 0.000000000000e+000
          1.343283582084e+001 0.000000000000e+000 0.000000000000e+000
          1.492537313427e+001 0.000000000000e+000 0.000000000000e+000
          1.641791044770e+001 0.000000000000e+000 0.000000000000e+000
          1.791044776112e+001 0.000000000000e+000 0.000000000000e+000
          1.940298507455e+001 0.000000000000e+000 0.000000000000e+000
          2.089552238798e+001 0.000000000000e+000 0.000000000000e+000
          2.238805970141e+001 0.000000000000e+000 0.000000000000e+000
          2.388059701484e+001 0.000000000000e+000 0.000000000000e+000
          2.537313432826e+001 0.000000000000e+000 0.000000000000e+000
          2.686567164169e+001 0.000000000000e+000 0.000000000000e+000
          2.835820895511e+001 0.000000000000e+000 0.000000000000e+000
          2.985074626854e+001 0.000000000000e+000 0.000000000000e+000
          3.134328358196e+001 0.000000000000e+000 0.000000000000e+000
          3.283582089539e+001 0.000000000000e+000 0.000000000000e+000
          3.432835820881e+001 0.000000000000e+000 0.000000000000e+000
          3.582089552224e+001 0.000000000000e+000 0.000000000000e+000
          3.731343283566e+001 0.000000000000e+000 0.000000000000e+000
          3.880597014909e+001 0.000000000000e+000 0.000000000000e+000
          4.029850746251e+001 0.000000000000e+000 0.000000000000e+000
          4.179104477594e+001 0.000000000000e+000 0.000000000000e+000
          4.328358208936e+001 0.000000000000e+000 0.000000000000e+000
          4.477611940279e+001 0.000000000000e+000 0.000000000000e+000
          4.626865671621e+001 0.000000000000e+000 0.000000000000e+000
          4.776119402964e+001 0.000000000000e+000 0.000000000000e+000
          4.925373134306e+001 0.000000000000e+000 0.000000000000e+000
          5.074626865649e+001 0.000000000000e+000 0.000000000000e+000
          5.223880596991e+001 0.000000000000e+000 0.000000000000e+000
          5.373134328334e+001 0.000000000000e+000 0.000000000000e+000
          5.522388059676e+001 0.000000000000e+000 0.000000000000e+000
          5.671641791019e+001 0.000000000000e+000 0.000000000000e+000
          5.820895522361e+001 0.000000000000e+000 0.000000000000e+000
          5.970149253704e+001 0.000000000000e+000 0.000000000000e+000
          6.119402985046e+001 0.000000000000e+000 0.000000000000e+000
          6.268656716389e+001 0.000000000000e+000 0.000000000000e+000
          6.417910447732e+001 0.000000000000e+000 0.000000000000e+000
          6.567164179075e+001 0.000000000000e+000 0.000000000000e+000
          6.716417910418e+001 0.000000000000e+000 0.000000000000e+000
          6.865671641761e+001 0.000000000000e+000 0.000000000000e+000
          7.014925373104e+001 0.000000000000e+000 0.000000000000e+000
          7.164179104447e+001 0.000000000000e+000 0.000000000000e+000
          7.313432835790e+001 0.000000000000e+000 0.000000000000e+000
          7.462686567133e+001 0.000000000000e+000 0.000000000000e+000
          7.611940298476e+001 0.000000000000e+000 0.000000000000e+000
          7.761194029819e+001 0.000000000000e+000 0.000000000000e+000
          7.910447761162e+001 0.000000000000e+000 0.000000000000e+000
          8.059701492505e+001 0.000000000000e+000 0.000000000000e+000
          8.208955223848e+001 0.000000000000e+000 0.000000000000e+000
          8.358208955191e+001 0.000000000000e+000 0.000000000000e+000
          8.507462686534e+001 0.000000000000e+000 0.000000000000e+000
          8.656716417877e+001 0.000000000000e+000 0.000000000000e+000
          8.805970149220e+001 0.000000000000e+000 0.000000000000e+000
          8.955223880563e+001 0.000000000000e+000 0.000000000000e+000
          9.104477611907e+001 0.000000000000e+000 0.000000000000e+000
          9.253731343250e+001 0.000000000000e+000 0.000000000000e+000
          9.402985074593e+001 0.000000000000e+000 0.000000000000e+000
          9.552238805936e+001 0.000000000000e+000 0.000000000000e+000
          9.701492537279e+001 0.000000000000e+000 0.000000000000e+000
          9.850746268622e+001 0.000000000000e+000 0.000000000000e+000
          9.999999999965e+001 0.000000000000e+000 0.000000000000e+000
          1.014925373131e+002 0.000000000000e+000 0.000000000000e+000
          1.029850746265e+002 0.000000000000e+000 0.000000000000e+000
          1.044776119399e+002 0.000000000000e+000 0.000000000000e+000
          1.059701492534e+002 0.000000000000e+000 0.000000000000e+000
          1.074626865668e+002 0.000000000000e+000 0.000000000000e+000
          1.089552238802e+002 0.000000000000e+000 0.000000000000e+000
          1.104477611937e+002 0.000000000000e+000 0.000000000000e+000
          1.119402985071e+002 0.000000000000e+000 0.000000000000e+000
          1.134328358205e+002 0.000000000000e+000 0.000000000000e+000
          1.149253731340e+002 0.000000000000e+000 0.000000000000e+000
          1.164179104474e+002 0.000000000000e+000 0.000000000000e+000
          1.179104477608e+002 0.000000000000e+000 0.000000000000e+000
          1.194029850742e+002 0.000000000000e+000 0.000000000000e+000
          1.208955223877e+002 0.000000000000e+000 0.000000000000e+000
          1.223880597011e+002 0.000000000000e+000 0.000000000000e+000
          1.238805970145e+002 0.000000000000e+000 0.000000000000e+000
          1.253731343280e+002 0.000000000000e+000 0.000000000000e+000
          1.268656716414e+002 0.000000000000e+000 0.000000000000e+000
          1.283582089548e+002 0.000000000000e+000 0.000000000000e+000
          1.298507462683e+002 0.000000000000e+000 0.000000000000e+000
          1.313432835817e+002 0.000000000000e+000 0.000000000000e+000
          1.328358208952e+002 0.000000000000e+000 0.000000000000e+000
          1.343283582086e+002 0.000000000000e+000 0.000000000000e+000
          1.358208955220e+002 0.000000000000e+000 0.000000000000e+000
          1.373134328355e+002 0.000000000000e+000 0.000000000000e+000
          1.388059701489e+002 0.000000000000e+000 0.000000000000e+000
          1.402985074624e+002 0.000000000000e+000 0.000000000000e+000
          1.417910447758e+002 0.000000000000e+000 0.000000000000e+000
          1.432835820892e+002 0.000000000000e+000 0.000000000000e+000
          1.447761194027e+002 0.000000000000e+000 0.000000000000e+000
          1.462686567161e+002 0.000000000000e+000 0.000000000000e+000
          1.477611940296e+002 0.000000000000e+000 0.000000000000e+000
          1.492537313430e+002 0.000000000000e+000 0.000000000000e+000
          1.507462686564e+002 0.000000000000e+000 0.000000000000e+000
          1.522388059699e+002 0.000000000000e+000 0.000000000000e+000
          1.537313432833e+002 0.000000000000e+000 0.000000000000e+000
          1.552238805968e+002 0.000000000000e+000 0.000000000000e+000
          1.567164179102e+002 0.000000000000e+000 0.000000000000e+000
          1.582089552237e+002 0.000000000000e+000 0.000000000000e+000
          1.597014925371e+002 0.000000000000e+000 0.000000000000e+000
          1.611940298505e+002 0.000000000000e+000 0.000000000000e+000
          1.626865671640e+002 0.000000000000e+000 0.000000000000e+000
          1.641791044774e+002 0.000000000000e+000 0.000000000000e+000
          1.656716417909e+002 0.000000000000e+000 0.000000000000e+000
          1.671641791043e+002 0.000000000000e+000 0.000000000000e+000
          1.686567164177e+002 0.000000000000e+000 0.000000000000e+000
          1.701492537312e+002 0.000000000000e+000 0.000000000000e+000
          1.716417910446e+002 0.000000000000e+000 0.000000000000e+000
          1.731343283581e+002 0.000000000000e+000 0.000000000000e+000
          1.746268656715e+002 0.000000000000e+000 0.000000000000e+000
          1.761194029849e+002 0.000000000000e+000 0.000000000000e+000
          1.776119402984e+002 0.000000000000e+000 0.000000000000e+000
          1.791044776118e+002 0.000000000000e+000 0.000000000000e+000
          1.805970149253e+002 0.000000000000e+000 0.000000000000e+000
          1.820895522387e+002 0.000000000000e+000 0.000000000000e+000
          1.835820895521e+002 0.000000000000e+000 0.000000000000e+000
          1.850746268656e+002 0.000000000000e+000 0.000000000000e+000
          1.865671641790e+002 0.000000000000e+000 0.000000000000e+000
          1.880597014925e+002 0.000000000000e+000 0.000000000000e+000
          1.895522388059e+002 0.000000000000e+000 0.000000000000e+000
          1.910447761194e+002 0.000000000000e+000 0.000000000000e+000
          1.925373134328e+002 0.000000000000e+000 0.000000000000e+000
          1.940298507462e+002 0.000000000000e+000 0.000000000000e+000
          1.955223880597e+002 0.000000000000e+000 0.000000000000e+000
          1.970149253731e+002 0.000000000000e+000 0.000000000000e+000
          1.985074626866e+002 0.000000000000e+000 0.000000000000e+000
          2.000000000000e+002 1.428571428570e+000 0.000000000000e+000
          2.000000000000e+002 2.857142857140e+000 0.000000000000e+000
[...]
      <PointData Scalars="Capillary_Pressure">
        <DataArray type="Float64" Name="Capillary_Pressure" format="ascii">
          3.294997206697e+005 0.000000000000e+000 0.000000000000e+000 3.295062854874e+005 3.298191689588e+005 3.263799788694e+005 3.254203116464e+005 3.230809745086e+005 3.227899985259e+005 3.205076170779e+005 3.181231421145e+005 3.180738342372e+005 3.155567090475e+005 3.155382692332e+005 3.133527118072e+005 3.105645261071e+005 3.107738014551e+005 3.084999588307e+005 3.082260443556e+005 3.058017786786e+005 3.017735179075e+005 3.018460728236e+005 3.014211711010e+005 2.979235546842e+005 2.978499651234e+005 2.954171792729e+005 2.950096012720e+005 2.913808013605e+005 2.911775361499e+005 2.889412875829e+005 2.886299875670e+005 2.849062259828e+005 2.847525320249e+005 2.826790506246e+005 2.823366850488e+005 2.780805865619e+005 2.786300242793e+005 2.758491878825e+005 2.732246888017e+005 2.735453128558e+005 2.732041211719e+005 2.696409465348e+005 2.669731475931e+005 2.670494585941e+005 2.629331463228e+005 2.630712171303e+005 2.600390149558e+005 2.602487702919e+005 2.577996501991e+005 2.573318983624e+005 2.528855181620e+005 2.533928402014e+005 2.490623168089e+005 2.492459120258e+005 2.448333790222e+005 2.439431050943e+005 2.419479036088e+005 2.422943640704e+005 2.417695524867e+005 2.377242021749e+005 2.342468289963e+005 2.348752755598e+005 2.305274768053e+005 2.305275684877e+005 2.277190055931e+005 2.242104520990e+005 2.212958188885e+005 2.216111924004e+005 2.164690111235e+005 2.155843557191e+005 2.131534699037e+005 2.100082942843e+005 2.102329069655e+005 2.074769034000e+005 2.036264424611e+005 2.002211932702e+005 2.008851237279e+005 1.973297682921e+005 1.941986572069e+005 1.938662050535e+005 1.870756878011e+005 1.838951001280e+005 1.809121421515e+005 1.772392419839e+005 1.737141600804e+005 1.698223968889e+005 1.704135340060e+005 1.669184701688e+005 1.628962351552e+005 1.592928008022e+005 1.501961092074e+005 1.460890207890e+005 1.418458001841e+005 1.369123423837e+005 1.346315706804e+005 1.243163895896e+005 1.188174560453e+005 1.168059463322e+005 1.046288564096e+005 9.532099408496e+004 9.198522202714e+004 7.333563540399e+004 6.105320104515e+004 4.573894489355e+004 2.214784150449e+004 0.000000000000e+000 0.000000000000e+000 0.000000000000e+000 0.000000000000e+000 0.000000000000e+000 0.000000000000e+000 0.000000000000e+000 0.000000000000e+000 0.000000000000e+000 0.000000000000e+000 0.000000000000e+000 0.000000000000e+000 0.000000000000e+000 0.000000000000e+000 0.000000000000e+000 0.000000000000e+000 0.000000000000e+000 0.000000000000e+000 0.000000000000e+000 0.000000000000e+000 0.000000000000e+000 0.000000000000e+000 0.000000000000e+000 0.000000000000e+000 0.000000000000e+000 0.000000000000e+000 0.000000000000e+000 0.000000000000e+000 0.000000000000e+000 0.000000000000e+000 0.000000000000e+000 0.000000000000e+000 0.000000000000e+000 0.000000000000e+000 0.000000000000e+000 0.000000000000e+000 0.000000000000e+000 0.000000000000e+000 0.000000000000e+000 0.000000000000e+000 0.000000000000e+000 0.000000000000e+000 0.000000000000e+000 0.000000000000e+000 0.000000000000e+000 0.000000000000e+000 0.000000000000e+000 0.000000000000e+000 0.000000000000e+000 0.000000000000e+000 0.000000000000e+000 0.000000000000e+000 0.000000000000e+000 0.000000000000e+000 0.000000000000e+000 0.000000000000e+000 0.000000000000e+000 0.000000000000e+000 0.000000000000e+000 0.000000000000e+000 0.000000000000e+000 0.000000000000e+000 0.000000000000e+000 0.000000000000e+000 0.000000000000e+000 0.000000000000e+000 0.000000000000e+000 0.000000000000e+000 0.000000000000e+000 0.000000000000e+000 0.000000000000e+000 0.000000000000e+000 0.000000000000e+000 0.000000000000e+000 0.000000000000e+000 0.000000000000e+000 0.000000000000e+000 2.214080622222e+004 4.573335411445e+004 6.105122890156e+004 7.332485820419e+004 9.197210856646e+004 9.530570859075e+004 1.046119956070e+005 1.167754421946e+005 1.188107932244e+005 1.243075707658e+005 1.346156928148e+005 1.368758828504e+005 1.418178559894e+005 1.460395017707e+005 1.501432775866e+005 1.593578305116e+005 1.628654871793e+005 1.668523620797e+005 1.703904733624e+005 1.698137359287e+005 1.736855142147e+005 1.772573837788e+005 1.809594651755e+005 1.838808493981e+005 1.870721792112e+005 1.938350293909e+005 1.941948203740e+005 1.973780497936e+005 2.008893247186e+005 2.001972034545e+005 2.036177603619e+005 2.074737397585e+005 2.102631102606e+005 2.135226870066e+005 2.131252166903e+005 2.155922651346e+005 2.164150126062e+005 2.216278140999e+005 2.247831514238e+005 2.243102275822e+005 2.275944054464e+005 2.305347827827e+005 2.305337488945e+005 2.348796677722e+005 2.342627139948e+005 2.377930040182e+005 2.417643095991e+005 2.423052480928e+005 2.419979048586e+005 2.439648114725e+005 2.489097676866e+005 2.492627208533e+005 2.490399746106e+005 2.534064761477e+005 2.528810640655e+005 2.573325756115e+005 2.577751177442e+005 2.602061212713e+005 2.599538797047e+005 2.630259601094e+005 2.666745846253e+005 2.670374342728e+005 2.668581669345e+005 2.696582555285e+005 2.731518090227e+005 2.735633366931e+005 2.732135273753e+005 2.757891685956e+005 2.786495665033e+005 2.780791924269e+005 2.823476340304e+005 2.826620595958e+005 2.847452027384e+005 2.848971809729e+005 2.886408834979e+005 2.889369105350e+005 2.911798293924e+005 2.913565909073e+005 2.950304203809e+005 2.954001141832e+005 2.978306734531e+005 2.979324374428e+005 3.014236667477e+005 3.018238211909e+005 3.017621899999e+005 3.057984777332e+005 3.082146765690e+005 3.084798441002e+005 3.107724343451e+005 3.106537592464e+005 3.131748275188e+005 3.131834189920e+005 3.155076173118e+005 3.181284701843e+005 3.180383207718e+005 3.205476551064e+005 3.227827413171e+005 3.230778201639e+005 3.253776368541e+005 3.264011519830e+005 3.298114663223e+005 3.295068429592e+005 3.295075877802e+005 3.295012606628e+005 3.295045369955e+005 3.295041265767e+005 3.295026584136e+005 3.295009156028e+005 3.294967569186e+005 3.295007558900e+005 3.295050241674e+005 3.294972104855e+005 3.295038694899e+005 3.295029054688e+005 0.000000000000e+000 3.205428702336e+005 0.000000000000e+000 0.000000000000e+000 0.000000000000e+000 5.441840507192e+004 1.252976958253e+005 3.017224991629e+005 1.579346298466e+005 2.887789186173e+005 2.787315389943e+005 2.671112969128e+005 2.491882942164e+005 2.352157173971e+005 2.215038773391e+005 2.038345108947e+005 1.850159735131e+005 3.109136987518e+005 2.577598240367e+005 1.698432709165e+005 1.741143945166e+005 1.941783367184e+005 2.136309550323e+005 2.275695213135e+005 2.423068214564e+005 0.000000000000e+000 0.000000000000e+000 0.000000000000e+000 2.423018248015e+005 2.276813770386e+005 2.134480877789e+005 1.933763864596e+005 9.521641070810e+004 1.417742520602e+005 2.954094096426e+005 2.847710784546e+005 2.735200323300e+005 1.418941410674e+005 9.531651053692e+004 0.000000000000e+000 0.000000000000e+000 0.000000000000e+000 2.735950254788e+005 2.847506930350e+005 2.954114892657e+005 0.000000000000e+000 0.000000000000e+000 2.600053803736e+005 2.534899786434e+005 3.154577317137e+005 3.057160412816e+005 0.000000000000e+000 3.230554187263e+005 0.000000000000e+000 3.230847673330e+005 3.151444785556e+005 3.057997768121e+005 2.630909123330e+005 2.532157128312e+005 0.000000000000e+000 1.850616397844e+005 0.000000000000e+000 2.037854835176e+005 2.215254142311e+005 2.352383566611e+005 2.489400760456e+005 1.579407882752e+005 0.000000000000e+000 5.257594096570e+004 1.255875373869e+005 2.887756767980e+005 2.787220627063e+005 1.593287198344e+005 1.255860038910e+005 5.445605211620e+004 0.000000000000e+000 2.352263125288e+005 2.215197963271e+005 2.037951853603e+005 0.000000000000e+000 1.849804323383e+005 0.000000000000e+000 2.671318928009e+005 2.786823371440e+005 2.887572715764e+005 3.017394694838e+005 0.000000000000e+000 0.000000000000e+000 3.180521188201e+005 3.014456505866e+005 2.447686824168e+005 2.694985033713e+005 0.000000000000e+000 3.254533413841e+005 3.109113272214e+005 3.205022339328e+005 3.109404022105e+005 2.572335306451e+005 2.631671300621e+005 2.534528704853e+005 3.156042287708e+005 3.057630378946e+005 2.577749931200e+005 0.000000000000e+000 0.000000000000e+000 0.000000000000e+000 9.187699882885e+004 0.000000000000e+000 1.372945978529e+005 1.938171093076e+005 2.245335069062e+005 2.377855749096e+005 2.103715656513e+005 2.950301912024e+005 2.731981554722e+005 2.843419236593e+005 1.736923528765e+005 2.577986357557e+005 0.000000000000e+000 3.263741341481e+005 0.000000000000e+000 3.263828266236e+005 1.882177966636e+005 2.066224431148e+005 2.248837591547e+005 2.376766217420e+005 1.513634893902e+005 1.778919264200e+005 1.659244491604e+005 1.121802764034e+005 2.695123841794e+005 5.463526199115e+003 2.826186530834e+005 0.000000000000e+000 2.914790407640e+005 0.000000000000e+000 0.000000000000e+000 0.000000000000e+000 0.000000000000e+000 0.000000000000e+000 7.753205983713e+003 0.000000000000e+000 1.122212046133e+005 8.610418504190e+004 2.914736155090e+005 1.388619207928e+005 1.513833403586e+005 2.826077836590e+005 2.849546180211e+005 2.375639316018e+005 2.248928289886e+005 2.067332106625e+005 2.306325681721e+005 2.132190839182e+005 1.937898492988e+005 1.962587824070e+005 2.732508892877e+005 1.660152366668e+005 1.778392408411e+005 0.000000000000e+000 2.979292760644e+005 0.000000000000e+000 2.849244774508e+005 0.000000000000e+000 2.732729924861e+005 8.455372729767e+004 2.446591884075e+005 2.306951169476e+005 2.132517925895e+005 2.006488232188e+005 1.389082896744e+005 3.108566305012e+005 0.000000000000e+000 0.000000000000e+000 2.531792212591e+005 2.663309165866e+005 3.057118688417e+005 1.659905690711e+005 2.132079010844e+005 1.962244993605e+005 2.305801615581e+005 2.446567634255e+005 2.979111984738e+005 2.825945214400e+005 0.000000000000e+000 2.694645704501e+005 0.000000000000e+000 1.099774119349e+004 1.513320635484e+005 1.055470064782e+005 2.978165919516e+005 0.000000000000e+000 0.000000000000e+000 2.572405440203e+005 3.155591254742e+005 0.000000000000e+000 1.668113354917e+005 1.551998749829e+005 1.168224466682e+005 2.695537525129e+005 2.446737636401e+004 2.822774344123e+005 2.304995262560e+005 2.154745550785e+005 2.009272965790e+005 0.000000000000e+000 2.979198488659e+005 0.000000000000e+000 3.083136896692e+005 2.446145168831e+005 0.000000000000e+000 0.000000000000e+000 0.000000000000e+000 2.419424262902e+005 2.730793223289e+005 2.490895406264e+005 2.666458034514e+005 3.228230933475e+005 3.017738679766e+005 3.180705914706e+005 3.131605439446e+005 3.017401592955e+005 1.870329744138e+005 2.074528559719e+005 2.248213684599e+005 2.377310139463e+005 0.000000000000e+000 2.913477588039e+005 0.000000000000e+000 1.772360496344e+005 1.346412959712e+005 0.000000000000e+000 7.326099523422e+004 0.000000000000e+000 0.000000000000e+000 1.879473776968e+005 2.075079199061e+005 2.247931379596e+005 2.377494370301e+005 2.912607867141e+005 2.757999258489e+005 2.886144372306e+005 2.886132523884e+005 0.000000000000e+000 2.751659872362e+005 7.322492043086e+004 1.346309306639e+005 1.772729632115e+005 0.000000000000e+000 0.000000000000e+000 3.263830241479e+005 3.264113830993e+005 0.000000000000e+000 3.222506484650e+005 0.000000000000e+000 0.000000000000e+000 3.205530798925e+005 0.000000000000e+000 3.180256532812e+005 3.222579544645e+005 2.668328423927e+005 2.485500347421e+005 3.011538353726e+005 3.179555502507e+005 2.670466425185e+005 3.083670543555e+005 3.084972876053e+005 2.492543699114e+005 3.130826996912e+005 2.630537254995e+005 2.572462478258e+005 3.132236284734e+005 2.825627574505e+005 1.500906335605e+005 1.102003247911e+005 1.611966815604e+004 0.000000000000e+000 0.000000000000e+000 1.668955130948e+005 2.447372285361e+005 2.299930813050e+005 2.165582898719e+005 2.008273657604e+005 2.603545461527e+005 3.084602690921e+005 2.533081577010e+005 2.595420929657e+005 0.000000000000e+000 0.000000000000e+000 2.974577342509e+005 2.729479731980e+005 3.205688467754e+005 3.229958583503e+005 0.000000000000e+000 3.131291596395e+005 1.843602724942e+005 2.071362777088e+005 2.216034335373e+005 2.342138777459e+005 1.592823344399e+005 1.584014899673e+005 1.808062106815e+005 1.188106233439e+005 4.983123124198e+004 2.669193196424e+005 0.000000000000e+000 2.785553616016e+005 0.000000000000e+000 2.912068229751e+005 0.000000000000e+000 0.000000000000e+000 0.000000000000e+000 4.975777121259e+004 1.207952078768e+005 2.912400726544e+005 2.785591037375e+005 2.342261483896e+005 2.216247493917e+005 2.071748535795e+005 0.000000000000e+000 3.014196000588e+005 2.447979226061e+005 0.000000000000e+000 0.000000000000e+000 0.000000000000e+000 2.979635737820e+005 3.018716637587e+005 3.180072296026e+005 2.573450519437e+005 0.000000000000e+000 0.000000000000e+000 0.000000000000e+000 1.004634800536e+005 1.471383655770e+005 2.953135359888e+005 2.823930984164e+005 2.733299315276e+005 1.934829057593e+005 2.273933930782e+005 2.423594351004e+005 2.135754382246e+005 1.703400649715e+005 0.000000000000e+000 0.000000000000e+000 0.000000000000e+000 0.000000000000e+000 5.651166590129e+004 1.255324320566e+005 2.787307537293e+005 2.352472973013e+005 2.213329261699e+005 2.037475381154e+005 3.257240881673e+005 2.603699630115e+005 1.593512625046e+005 1.581537718750e+005 2.489582904466e+005 0.000000000000e+000 3.296368993570e+005 2.695886357280e+005 2.440108534103e+005 1.418853528905e+005 9.532411839000e+004 0.000000000000e+000 0.000000000000e+000 0.000000000000e+000 2.735632573985e+005 2.847246870529e+005 2.954072665621e+005 2.135332842557e+005 1.941968400697e+005 2.423113296167e+005 2.276785389216e+005 0.000000000000e+000 0.000000000000e+000 2.276359940372e+005 2.134870006218e+005 0.000000000000e+000 1.942037066576e+005 9.531453350772e+004 1.418477900460e+005 2.847277624982e+005 1.698062731855e+005 1.697995325769e+005 3.081468613534e+005 2.630446751634e+005 3.107626487025e+005 2.420845223621e+005 2.577506443258e+005 0.000000000000e+000 0.000000000000e+000 2.533241065628e+005 2.492306824562e+005 2.575855324088e+005 1.537836150336e+005 1.845990966765e+005 1.815168280374e+005 1.614992152372e+005 1.997862712029e+005 2.164729420528e+005 2.347709077003e+005 1.280866797562e+005 2.888918581731e+005 2.784597499625e+005 0.000000000000e+000 0.000000000000e+000 6.722692058725e+004 0.000000000000e+000 2.888849708299e+005 0.000000000000e+000 2.784386807126e+005 2.347144824955e+005 2.164105701528e+005 2.001285268839e+005 6.728256512558e+004 1.281109607979e+005 3.258193323944e+005 3.179282535408e+005 0.000000000000e+000 3.258368917259e+005 1.851052627390e+005 1.850307695569e+005 2.887588150291e+005 2.887915532679e+005 0.000000000000e+000 0.000000000000e+000 0.000000000000e+000 3.130728072208e+005 3.205046677113e+005 3.014215715363e+005 3.109771394983e+005 0.000000000000e+000 3.296312184126e+005 0.000000000000e+000 3.296372779726e+005 3.154112608424e+005 0.000000000000e+000 0.000000000000e+000 1.255825489589e+005 5.442109244017e+004 2.787406579296e+005 2.035754208404e+005 2.352206817113e+005 2.215187508569e+005 0.000000000000e+000 3.057963690252e+005 3.058247229954e+005 3.180445494256e+005 2.492674352066e+005 2.668392181704e+005 3.180960303143e+005 3.016967049391e+005 2.953653024127e+005 2.630627028643e+005 3.054366295566e+005 0.000000000000e+000 0.000000000000e+000 2.662721600627e+005 2.491770304888e+005 0.000000000000e+000 2.669981331821e+005 2.491018555458e+005 2.533888427676e+005 0.000000000000e+000 2.979316523098e+005 0.000000000000e+000 2.304940336137e+005 2.154619445163e+005 2.009291113602e+005 1.623844120570e+005 2.826055671883e+005 5.447739863688e+003 2.727182444906e+005 1.122038276889e+005 1.551899474514e+005 0.000000000000e+000 3.085096048787e+005 2.533492763934e+005 2.601103757924e+005 2.671569397604e+005 3.131402574383e+005 0.000000000000e+000 3.296118983641e+005 0.000000000000e+000 3.298002893400e+005 3.205918836567e+005 3.017295947760e+005 2.577695643872e+005 2.631249444569e+005 0.000000000000e+000 2.736231540908e+005 2.421059409853e+005 3.058254769870e+005 2.492954591398e+005 3.109049590078e+005 1.388471724300e+005 8.361749125225e+004 0.000000000000e+000 2.732555928931e+005 2.849946283391e+005 0.000000000000e+000 0.000000000000e+000 7.323760987050e+004 0.000000000000e+000 1.345780733362e+005 2.886428511790e+005 2.751353746846e+005 2.906512637077e+005 2.377545832359e+005 2.075588123767e+005 2.213171618432e+005 1.883740344695e+005 0.000000000000e+000 0.000000000000e+000 2.914403427387e+005 1.778256999649e+005 2.376942245043e+005 2.248894330936e+005 2.066593219539e+005 1.937488672366e+005 1.771891173044e+005 1.697920823807e+005 1.942108442169e+005 2.277500720657e+005 2.136173270290e+005 2.422973756108e+005 0.000000000000e+000 0.000000000000e+000 0.000000000000e+000 1.418348868205e+005 9.528044348143e+004 2.954171938641e+005 2.846973807399e+005 2.735505598763e+005 2.668488950867e+005 3.018009740602e+005 0.000000000000e+000 3.206212348515e+005 1.773146663281e+005 1.882555861672e+005 2.074939538865e+005 2.246810873245e+005 2.377289314263e+005 0.000000000000e+000 0.000000000000e+000 2.905894983484e+005 0.000000000000e+000 7.316783646129e+004 1.344795255460e+005 2.888242413949e+005 2.751902854642e+005 2.569028085966e+005 0.000000000000e+000 2.603277817539e+005 0.000000000000e+000 1.741788879062e+005 1.698267344258e+005 1.941969038882e+005 2.133776546445e+005 2.275752344322e+005 2.421271577722e+005 0.000000000000e+000 0.000000000000e+000 0.000000000000e+000 1.021298467091e+005 1.413793836748e+005 2.847145781672e+005 1.417596608910e+005 2.276982732042e+005 2.099558941837e+005 1.941794818600e+005 9.532909426611e+004 0.000000000000e+000 2.735809395776e+005 0.000000000000e+000 2.847166492050e+005 0.000000000000e+000 2.954078711624e+005 3.108881422542e+005 0.000000000000e+000 2.952276507421e+005 0.000000000000e+000 2.244227893825e+005 1.938128481826e+005 2.099810059588e+005 2.376940576583e+005 2.843102022697e+005 0.000000000000e+000 2.728601809012e+005 8.904572631811e+004 1.374060589560e+005 1.735936532084e+005 3.205588200157e+005 0.000000000000e+000 3.296197174818e+005 0.000000000000e+000 0.000000000000e+000 0.000000000000e+000 2.604133879381e+005 2.533873706181e+005 3.059404642897e+005 2.953843165570e+005 0.000000000000e+000 3.200755783035e+005 0.000000000000e+000 0.000000000000e+000 3.018031405493e+005 1.552381280490e+005 1.168660324135e+005 2.696496207557e+005 3.584237827137e+004 2.823157669514e+005 2.008910326605e+005 2.154839520683e+005 2.305111129380e+005 1.623284746280e+005 0.000000000000e+000 2.979444732785e+005 0.000000000000e+000 2.671096472631e+005 2.489561713944e+005 2.600009461900e+005 3.155529604164e+005 3.180248057121e+005 0.000000000000e+000 3.254742878979e+005 0.000000000000e+000 3.254660378583e+005 2.420831021180e+005 2.736265271453e+005 2.439735666562e+005 3.131569570178e+005 0.000000000000e+000 3.257132476349e+005 2.631560549650e+005 2.535196581641e+005 2.600576306833e+005 3.058800200362e+005 3.154856967541e+005 3.106910244165e+005 2.695064762760e+005 3.154639525853e+005 3.085375971254e+005 2.603953591793e+005 3.180887699805e+005 3.155766027336e+005 2.576551708535e+005 2.665557632708e+005 2.534573532806e+005 2.631043878769e+005 0.000000000000e+000 3.227925268908e+005 2.979824746379e+005 1.704892156121e+005 1.615409514812e+005 0.000000000000e+000 0.000000000000e+000 0.000000000000e+000 0.000000000000e+000 2.454789703514e+004 1.168331590973e+005 2.822770623366e+005 1.459723141812e+005 1.537834916919e+005 2.419644407158e+005 2.440501295206e+005 2.304232067235e+005 2.347703947545e+005 2.164039598887e+005 2.124527163486e+005 1.974802251367e+005 2.009651817438e+005 3.230557687348e+005 0.000000000000e+000 0.000000000000e+000 0.000000000000e+000 0.000000000000e+000 3.258511451257e+005 0.000000000000e+000 1.881421979738e+005 2.067112042282e+005 2.248852700075e+005 2.367511435783e+005 1.778022048604e+005 1.655351804659e+005 1.513056091883e+005 1.122424006409e+005 2.695004141398e+005 7.744088890471e+003 2.825666325492e+005 0.000000000000e+000 2.914179463429e+005 0.000000000000e+000 0.000000000000e+000 0.000000000000e+000 0.000000000000e+000 7.773564187414e+003 1.12248