<?xml version="1.0"?>
<VTKFile type="UnstructuredGrid" version="0.1" byte_order="LittleEndian">
  <UnstructuredGrid>
    <Piece NumberOfPoints="2604" NumberOfCells="4910">
      <Points>
        <DataArray type="Float64" NumberOfComponents="3" format="ascii">
          0.000000000000e+000 0.000000000000e+000 0.000000000000e+000
          2.000000000000e+002 0.000000000000e+000 0.000000000000e+000
          2.000000000000e+002 2.000000000000e+001 0.000000000000e+000
          0.000000000000e+000 2.000000000000e+001 0.000000000000e+000
          1.492537313427e+000 0.000000000000e+000 0.000000000000e+000
          2.985074626854e+000 0.000000000000e+000 0.000000000000e+000
          4.477611940281e+000 0.000000000000e+000 0.000000000000e+000
          5.970149253708e+000 0.000000000000e+000 0.000000000000e+000
          7.462686567135e+000 0.000000000000e+000 0.000000000000e+000
          8.955223880561e+000 0.000000000000e+000 0.000000000000e+000
          1.044776119399e+001 0.000000000000e+000 0.000000000000e+000
          1.194029850741e+001 0.000000000000e+000 0.000000000000e+000
          1.343283582084e+001 0.000000000000e+000 0.000000000000e+000
          1.492537313427e+001 0.000000000000e+000 0.000000000000e+000
          1.641791044770e+001 0.000000000000e+000 0.000000000000e+000
          1.791044776112e+001 0.000000000000e+000 0.000000000000e+000
          1.940298507455e+001 0.000000000000e+000 0.000000000000e+000
          2.089552238798e+001 0.000000000000e+000 0.000000000000e+000
          2.238805970141e+001 0.000000000000e+000 0.000000000000e+000
          2.388059701484e+001 0.000000000000e+000 0.000000000000e+000
          2.537313432826e+001 0.000000000000e+000 0.000000000000e+000
          2.686567164169e+001 0.000000000000e+000 0.000000000000e+000
          2.835820895511e+001 0.000000000000e+000 0.000000000000e+000
          2.985074626854e+001 0.000000000000e+000 0.000000000000e+000
          3.134328358196e+001 0.000000000000e+000 0.000000000000e+000
          3.283582089539e+001 0.000000000000e+000 0.000000000000e+000
          3.432835820881e+001 0.000000000000e+000 0.000000000000e+000
          3.582089552224e+001 0.000000000000e+000 0.000000000000e+000
          3.731343283566e+001 0.000000000000e+000 0.000000000000e+000
          3.880597014909e+001 0.000000000000e+000 0.000000000000e+000
          4.029850746251e+001 0.000000000000e+000 0.000000000000e+000
          4.179104477594e+001 0.000000000000e+000 0.000000000000e+000
          4.328358208936e+001 0.000000000000e+000 0.000000000000e+000
          4.477611940279e+001 0.000000000000e+000 0.000000000000e+000
          4.626865671621e+001 0.000000000000e+000 0.000000000000e+000
          4.776119402964e+001 0.000000000000e+000 0.000000000000e+000
          4.925373134306e+001 0.000000000000e+000 0.000000000000e+000
          5.074626865649e+001 0.000000000000e+000 0.000000000000e+000
          5.223880596991e+001 0.000000000000e+000 0.000000000000e+000
          5.373134328334e+001 0.000000000000e+000 0.000000000000e+000
          5.522388059676e+001 0.000000000000e+000 0.000000000000e+000
          5.671641791019e+001 0.000000000000e+000 0.000000000000e+000
          5.820895522361e+001 0.000000000000e+000 0.000000000000e+000
          5.970149253704e+001 0.000000000000e+000 0.000000000000e+000
          6.119402985046e+001 0.000000000000e+000 0.000000000000e+000
          6.268656716389e+001 0.000000000000e+000 0.000000000000e+000
          6.417910447732e+001 0.000000000000e+000 0.000000000000e+000
          6.567164179075e+001 0.000000000000e+000 0.000000000000e+000
          6.716417910418e+001 0.000000000000e+000 0.000000000000e+000
          6.865671641761e+001 0.000000000000e+000 0.000000000000e+000
          7.014925373104e+001 0.000000000000e+000 0.000000000000e+000
          7.164179104447e+001 0.000000000000e+000 0.000000000000e+000
          7.313432835790e+001 0.000000000000e+000 0.000000000000e+000
          7.462686567133e+001 0.000000000000e+000 0.000000000000e+000
          7.611940298476e+001 0.000000000000e+000 0.000000000000e+000
          7.761194029819e+001 0.000000000000e+000 0.000000000000e+000
          7.910447761162e+001 0.000000000000e+000 0.000000000000e+000
          8.059701492505e+001 0.000000000000e+000 0.000000000000e+000
          8.208955223848e+001 0.000000000000e+000 0.000000000000e+000
          8.358208955191e+001 0.000000000000e+000 0.000000000000e+000
          8.507462686534e+001 0.000000000000e+000 0.000000000000e+000
          8.656716417877e+001 0.000000000000e+000 0.000000000000e+000
          8.805970149220e+001 0.000000000000e+000 0.000000000000e+000
          8.955223880563e+001 0.000000000000e+000 0.000000000000e+000
          9.104477611907e+001 0.000000000000e+000 0.000000000000e+000
          9.253731343250e+001 0.000000000000e+000 0.000000000000e+000
          9.402985074593e+001 0.000000000000e+000 0.000000000000e+000
          9.552238805936e+001 0.000000000000e+000 0.000000000000e+000
          9.701492537279e+001 0.000000000000e+000 0.000000000000e+000
          9.850746268622e+001 0.000000000000e+000 0.000000000000e+000
          9.999999999965e+001 0.000000000000e+000 0.000000000000e+000
          1.014925373131e+002 0.000000000000e+000 0.000000000000e+000
          1.029850746265e+002 0.000000000000e+000 0.000000000000e+000
          1.044776119399e+002 0.000000000000e+000 0.000000000000e+000
          1.059701492534e+002 0.000000000000e+000 0.000000000000e+000
          1.074626865668e+002 0.000000000000e+000 0.000000000000e+000
          1.089552238802e+002 0.000000000000e+000 0.000000000000e+000
          1.104477611937e+002 0.000000000000e+000 0.000000000000e+000
          1.119402985071e+002 0.000000000000e+000 0.000000000000e+000
          1.134328358205e+002 0.000000000000e+000 0.000000000000e+000
          1.149253731340e+002 0.000000000000e+000 0.000000000000e+000
          1.164179104474e+002 0.000000000000e+000 0.000000000000e+000
          1.179104477608e+002 0.000000000000e+000 0.000000000000e+000
          1.194029850742e+002 0.000000000000e+000 0.000000000000e+000
          1.208955223877e+002 0.000000000000e+000 0.000000000000e+000
          1.223880597011e+002 0.000000000000e+000 0.000000000000e+000
          1.238805970145e+002 0.000000000000e+000 0.000000000000e+000
          1.253731343280e+002 0.000000000000e+000 0.000000000000e+000
          1.268656716414e+002 0.000000000000e+000 0.000000000000e+000
          1.283582089548e+002 0.000000000000e+000 0.000000000000e+000
          1.298507462683e+002 0.000000000000e+000 0.000000000000e+000
          1.313432835817e+002 0.000000000000e+000 0.000000000000e+000
          1.328358208952e+002 0.000000000000e+000 0.000000000000e+000
          1.343283582086e+002 0.000000000000e+000 0.000000000000e+000
          1.358208955220e+002 0.000000000000e+000 0.000000000000e+000
          1.373134328355e+002 0.000000000000e+000 0.000000000000e+000
          1.388059701489e+002 0.000000000000e+000 0.000000000000e+000
          1.402985074624e+002 0.000000000000e+000 0.000000000000e+000
          1.417910447758e+002 0.000000000000e+000 0.000000000000e+000
          1.432835820892e+002 0.000000000000e+000 0.000000000000e+000
          1.447761194027e+002 0.000000000000e+000 0.000000000000e+000
          1.462686567161e+002 0.000000000000e+000 0.000000000000e+000
          1.477611940296e+002 0.000000000000e+000 0.000000000000e+000
          1.492537313430e+002 0.000000000000e+000 0.000000000000e+000
          1.507462686564e+002 0.000000000000e+000 0.000000000000e+000
          1.522388059699e+002 0.000000000000e+000 0.000000000000e+000
          1.537313432833e+002 0.000000000000e+000 0.000000000000e+000
          1.552238805968e+002 0.000000000000e+000 0.000000000000e+000
          1.567164179102e+002 0.000000000000e+000 0.000000000000e+000
          1.582089552237e+002 0.000000000000e+000 0.000000000000e+000
          1.597014925371e+002 0.000000000000e+000 0.000000000000e+000
          1.611940298505e+002 0.000000000000e+000 0.000000000000e+000
          1.626865671640e+002 0.000000000000e+000 0.000000000000e+000
          1.641791044774e+002 0.000000000000e+000 0.000000000000e+000
          1.656716417909e+002 0.000000000000e+000 0.000000000000e+000
          1.671641791043e+002 0.000000000000e+000 0.000000000000e+000
          1.686567164177e+002 0.000000000000e+000 0.000000000000e+000
          1.701492537312e+002 0.000000000000e+000 0.000000000000e+000
          1.716417910446e+002 0.000000000000e+000 0.000000000000e+000
          1.731343283581e+002 0.000000000000e+000 0.000000000000e+000
          1.746268656715e+002 0.000000000000e+000 0.000000000000e+000
          1.761194029849e+002 0.000000000000e+000 0.000000000000e+000
          1.776119402984e+002 0.000000000000e+000 0.000000000000e+000
          1.791044776118e+002 0.000000000000e+000 0.000000000000e+000
          1.805970149253e+002 0.000000000000e+000 0.000000000000e+000
          1.820895522387e+002 0.000000000000e+000 0.000000000000e+000
          1.835820895521e+002 0.000000000000e+000 0.000000000000e+000
          1.850746268656e+002 0.000000000000e+000 0.000000000000e+000
          1.865671641790e+002 0.000000000000e+000 0.000000000000e+000
          1.880597014925e+002 0.000000000000e+000 0.000000000000e+000
          1.895522388059e+002 0.000000000000e+000 0.000000000000e+000
          1.910447761194e+002 0.000000000000e+000 0.000000000000e+000
          1.925373134328e+002 0.000000000000e+000 0.000000000000e+000
          1.940298507462e+002 0.000000000000e+000 0.000000000000e+000
          1.955223880597e+002 0.000000000000e+000 0.000000000000e+000
          1.970149253731e+002 0.000000000000e+000 0.000000000000e+000
          1.985074626866e+002 0.000000000000e+000 0.000000000000e+000
          2.000000000000e+002 1.428571428570e+000 0.000000000000e+000
          2.000000000000e+002 2.857142857140e+000 0.000000000000e+000
[...]
      <PointData Scalars="Capillary_Pressure">
        <DataArray type="Float64" Name="Capillary_Pressure" format="ascii">
          3.858665444271e+005 0.000000000000e+000 0.000000000000e+000 3.858688150961e+005 3.860935061049e+005 3.833639251683e+005 3.825015927124e+005 3.805712355863e+005 3.802983047291e+005 3.784045103482e+005 3.763772301380e+005 3.763012425405e+005 3.741337872687e+005 3.739660679393e+005 3.720835935387e+005 3.697138030362e+005 3.697598687244e+005 3.677420657557e+005 3.673326089974e+005 3.652284482824e+005 3.618345974817e+005 3.616279986769e+005 3.610618725556e+005 3.580570030856e+005 3.577203458657e+005 3.555343338885e+005 3.549080478046e+005 3.517670011620e+005 3.512647009102e+005 3.491988706512e+005 3.485592004604e+005 3.453586951473e+005 3.448325943345e+005 3.428538146227e+005 3.421154099099e+005 3.385153521487e+005 3.384274123853e+005 3.358174254106e+005 3.334270866238e+005 3.331383093529e+005 3.323393958235e+005 3.291825062724e+005 3.265037805314e+005 3.261343869932e+005 3.224662574975e+005 3.219986177795e+005 3.191702994612e+005 3.186753923648e+005 3.162341968564e+005 3.153246946112e+005 3.112355620938e+005 3.110443837576e+005 3.071854922563e+005 3.066241796132e+005 3.026619409515e+005 3.012892453312e+005 2.991037638682e+005 2.986342347619e+005 2.975035957006e+005 2.937097872988e+005 2.904869737234e+005 2.901104155039e+005 2.860560463623e+005 2.853575001316e+005 2.824274736771e+005 2.790462966301e+005 2.760338843531e+005 2.754098511319e+005 2.708600916115e+005 2.692526548592e+005 2.666407176726e+005 2.634847952144e+005 2.626195053223e+005 2.597404486623e+005 2.560021826445e+005 2.526730801786e+005 2.521204672660e+005 2.485725486885e+005 2.453264389978e+005 2.440085880234e+005 2.382991055295e+005 2.349225246738e+005 2.317743479469e+005 2.281684440671e+005 2.246300825308e+005 2.208986337756e+005 2.201658190323e+005 2.166506479696e+005 2.127580368604e+005 2.092160954943e+005 2.019946841240e+005 1.981225524575e+005 1.941858587276e+005 1.898278243039e+005 1.871816526842e+005 1.796082349797e+005 1.750827708258e+005 1.725930239659e+005 1.644391842368e+005 1.582084391734e+005 1.551301073794e+005 1.449971071221e+005 1.384577500617e+005 1.313728371526e+005 1.226012827234e+005 1.133833424281e+005 1.033120317560e+005 9.110719197367e+004 7.764557821760e+004 6.083571846740e+004 3.896022278622e+004 7.590979290041e+003 0.000000000000e+000 0.000000000000e+000 0.000000000000e+000 0.000000000000e+000 0.000000000000e+000 0.000000000000e+000 0.000000000000e+000 0.000000000000e+000 0.000000000000e+000 0.000000000000e+000 0.000000000000e+000 0.000000000000e+000 0.000000000000e+000 0.000000000000e+000 0.000000000000e+000 0.000000000000e+000 0.000000000000e+000 0.000000000000e+000 0.000000000000e+000 0.000000000000e+000 0.000000000000e+000 0.000000000000e+000 0.000000000000e+000 0.000000000000e+000 0.000000000000e+000 0.000000000000e+000 0.000000000000e+000 0.000000000000e+000 0.000000000000e+000 0.000000000000e+000 0.000000000000e+000 0.000000000000e+000 0.000000000000e+000 0.000000000000e+000 0.000000000000e+000 0.000000000000e+000 0.000000000000e+000 0.000000000000e+000 0.000000000000e+000 0.000000000000e+000 0.000000000000e+000 0.000000000000e+000 0.000000000000e+000 0.000000000000e+000 0.000000000000e+000 0.000000000000e+000 0.000000000000e+000 0.000000000000e+000 0.000000000000e+000 0.000000000000e+000 0.000000000000e+000 0.000000000000e+000 0.000000000000e+000 0.000000000000e+000 0.000000000000e+000 0.000000000000e+000 0.000000000000e+000 0.000000000000e+000 0.000000000000e+000 0.000000000000e+000 0.000000000000e+000 0.000000000000e+000 0.000000000000e+000 7.586839643242e+003 3.894899443472e+004 6.080711631165e+004 7.763632536260e+004 9.109258260343e+004 1.033152029134e+005 1.134043104630e+005 1.225895890662e+005 1.313705791695e+005 1.384513166977e+005 1.449903569412e+005 1.551261886711e+005 1.582006356400e+005 1.644227855072e+005 1.725858293023e+005 1.750798214582e+005 1.796106376353e+005 1.871742302452e+005 1.898226860865e+005 1.941758358077e+005 1.981020238766e+005 2.019726081425e+005 2.092112189907e+005 2.127617761099e+005 2.166520308048e+005 2.201659766168e+005 2.208943102469e+005 2.246400354701e+005 2.281772323351e+005 2.317654320739e+005 2.349249973700e+005 2.382822074607e+005 2.439965121641e+005 2.453100729265e+005 2.485756139766e+005 2.521063086479e+005 2.526596574294e+005 2.559887270381e+005 2.597298213791e+005 2.626335760400e+005 2.659825865762e+005 2.666389555178e+005 2.692351903653e+005 2.708385111150e+005 2.754227149783e+005 2.786041100654e+005 2.790323597936e+005 2.823633367249e+005 2.853582187961e+005 2.860578690205e+005 2.901132003784e+005 2.904936577543e+005 2.937389383749e+005 2.974993828412e+005 2.986401712210e+005 2.991172319783e+005 3.013147463919e+005 3.056580556214e+005 3.066456770725e+005 3.071865924948e+005 3.110475720305e+005 3.112762096874e+005 3.153056630011e+005 3.162057472403e+005 3.186604448985e+005 3.191458113833e+005 3.219822683853e+005 3.252414837301e+005 3.261328775729e+005 3.264934772930e+005 3.291745057018e+005 3.323437462078e+005 3.331402323877e+005 3.334196094462e+005 3.358198765595e+005 3.384280897990e+005 3.385138181351e+005 3.421117426527e+005 3.428501447768e+005 3.448299065137e+005 3.453616790742e+005 3.485571301652e+005 3.491979224461e+005 3.512637344606e+005 3.517612089357e+005 3.549090607755e+005 3.555287142993e+005 3.577208874814e+005 3.580608033838e+005 3.610612541953e+005 3.616320101051e+005 3.618433590309e+005 3.652189129982e+005 3.673300228317e+005 3.677436478272e+005 3.697675031375e+005 3.697087465345e+005 3.720732436018e+005 3.721310129692e+005 3.741513280644e+005 3.762966837345e+005 3.763722504196e+005 3.784105630842e+005 3.803048860378e+005 3.805848994121e+005 3.824606825408e+005 3.833656596031e+005 3.860929824746e+005 3.858678161525e+005 3.858653396493e+005 3.858691203612e+005 3.858677184275e+005 3.858660007671e+005 3.858665237271e+005 3.858665584535e+005 3.858654687104e+005 3.858661079512e+005 3.858671724007e+005 3.858676445728e+005 3.858645554282e+005 3.858656607996e+005 0.000000000000e+000 3.783864963677e+005 0.000000000000e+000 0.000000000000e+000 5.196359015659e+004 1.352993918879e+005 1.796376793602e+005 3.614209380156e+005 2.088390969486e+005 3.492327374572e+005 3.386955848362e+005 3.263978728363e+005 3.062761875474e+005 2.907231436574e+005 2.748836840488e+005 2.556214523562e+005 2.352621407523e+005 3.699569494578e+005 3.162231480417e+005 2.208813718563e+005 2.238992596404e+005 2.453062663740e+005 2.659834595437e+005 2.823500036801e+005 2.986403225690e+005 0.000000000000e+000 0.000000000000e+000 1.021049333473e+005 2.986370096216e+005 2.825313852118e+005 2.658350463761e+005 2.449461564047e+005 1.580163346216e+005 1.941769350985e+005 3.555434117457e+005 3.449069876031e+005 3.330677420251e+005 1.941136823770e+005 1.581841265388e+005 1.032944981668e+005 0.000000000000e+000 0.000000000000e+000 3.331683492104e+005 3.448345231422e+005 3.555205939364e+005 0.000000000000e+000 0.000000000000e+000 3.192656156256e+005 3.115967636465e+005 3.739648746903e+005 3.652186126444e+005 0.000000000000e+000 3.805793580548e+005 0.000000000000e+000 3.805868214430e+005 3.737221044902e+005 3.652660465129e+005 3.221298057661e+005 3.108058794653e+005 0.000000000000e+000 2.352512325430e+005 0.000000000000e+000 2.556146772694e+005 2.748747857755e+005 2.907089927642e+005 3.059000944555e+005 2.088887773106e+005 5.031148355055e+004 1.344082046738e+005 1.795944168573e+005 3.492720049893e+005 3.387647452101e+005 2.098227693430e+005 1.797510705074e+005 1.352213768270e+005 5.087348416929e+004 2.907228842027e+005 2.748704245322e+005 2.556367579593e+005 0.000000000000e+000 2.352418353397e+005 0.000000000000e+000 3.264660184717e+005 3.387209271651e+005 3.492654467372e+005 3.614229835344e+005 0.000000000000e+000 0.000000000000e+000 3.763704941213e+005 3.610495137253e+005 3.024798995273e+005 3.286660843105e+005 0.000000000000e+000 3.825148745060e+005 3.699427017803e+005 3.783506408866e+005 3.699587552323e+005 3.162760762644e+005 3.217363084846e+005 3.112939857933e+005 3.741441738433e+005 3.651850842110e+005 3.161953799891e+005 0.000000000000e+000 9.307081709537e+004 0.000000000000e+000 1.552434507448e+005 0.000000000000e+000 1.902527426461e+005 2.442129871962e+005 2.792028427263e+005 2.946544341601e+005 2.627334651336e+005 3.549255752155e+005 3.333650086400e+005 3.448717989801e+005 2.245101851069e+005 3.162267456458e+005 0.000000000000e+000 3.833530332737e+005 0.000000000000e+000 3.833478653819e+005 2.396821412888e+005 2.598746746005e+005 2.792474290246e+005 2.941647841054e+005 2.020118919467e+005 2.280087722657e+005 2.167155577245e+005 1.691032641468e+005 3.293732611239e+005 1.169471753282e+005 3.426374246239e+005 0.000000000000e+000 3.520531030634e+005 0.000000000000e+000 0.000000000000e+000 0.000000000000e+000 0.000000000000e+000 0.000000000000e+000 1.177570229878e+005 8.694902369841e+004 1.692444841107e+005 1.518239820377e+005 3.519904130837e+005 1.906853432928e+005 2.020304694806e+005 3.425901360728e+005 3.455522839617e+005 2.941532038310e+005 2.792242189067e+005 2.597913427934e+005 2.856860125967e+005 2.669882873223e+005 2.436148432335e+005 2.482306371343e+005 3.334687109357e+005 2.166989968993e+005 2.277506239835e+005 0.000000000000e+000 3.578900220555e+005 0.000000000000e+000 3.454786094141e+005 8.896359476839e+004 3.335516614927e+005 1.512282834767e+005 3.015138503125e+005 2.858163267450e+005 2.671246249776e+005 2.513988597479e+005 1.908369320824e+005 3.699379265093e+005 0.000000000000e+000 0.000000000000e+000 3.106472189362e+005 3.246888679269e+005 3.650337827148e+005 2.168132240274e+005 2.669687442110e+005 2.481815302193e+005 2.856429116485e+005 3.014942076824e+005 3.578606318867e+005 3.426901333342e+005 0.000000000000e+000 3.294065477182e+005 0.000000000000e+000 1.183965488115e+005 2.018920611067e+005 1.653347037869e+005 3.577272169199e+005 0.000000000000e+000 0.000000000000e+000 3.148110762537e+005 3.741356973059e+005 0.000000000000e+000 2.165093310221e+005 2.053809122310e+005 1.727014341582e+005 3.289880788907e+005 1.233642056391e+005 3.420708108623e+005 2.861235172361e+005 2.692945818619e+005 2.521835377698e+005 0.000000000000e+000 3.580562605392e+005 0.000000000000e+000 3.675203590863e+005 3.017344692051e+005 0.000000000000e+000 0.000000000000e+000 0.000000000000e+000 2.989938704766e+005 3.324313179568e+005 3.071133846459e+005 3.253869274991e+005 3.803121176202e+005 3.618006514615e+005 3.762658685909e+005 3.720030250927e+005 3.617946599714e+005 2.383174898716e+005 2.597459087564e+005 2.786323975556e+005 2.937518470108e+005 5.707136856601e+003 3.517704859636e+005 0.000000000000e+000 2.282314540509e+005 1.871954877332e+005 9.044160833073e+003 1.448846380638e+005 0.000000000000e+000 7.758377073195e+004 2.388697362911e+005 2.597606006663e+005 2.785672147960e+005 2.936959606437e+005 3.517060219308e+005 3.357928293075e+005 3.485713221234e+005 3.485708600858e+005 7.677213310781e+004 3.353732902024e+005 1.449002493277e+005 1.871117861826e+005 2.282085405100e+005 0.000000000000e+000 0.000000000000e+000 3.833503360940e+005 3.833564366716e+005 0.000000000000e+000 3.798720277445e+005 0.000000000000e+000 0.000000000000e+000 3.784515979240e+005 0.000000000000e+000 3.762833548966e+005 3.798839085279e+005 3.255729981791e+005 3.065236381694e+005 3.612393199143e+005 3.761907725438e+005 3.261844457487e+005 3.676304569219e+005 3.677720478623e+005 3.065350395266e+005 3.719007906215e+005 3.216837637785e+005 3.149467117282e+005 3.720618923062e+005 3.423934139138e+005 2.015809586290e+005 1.685240361367e+005 1.205577373644e+005 0.000000000000e+000 0.000000000000e+000 2.169484625024e+005 3.017619106519e+005 2.855047052582e+005 2.697634043606e+005 2.518389187786e+005 3.190718314749e+005 3.677087080265e+005 3.118494082730e+005 3.186490166737e+005 0.000000000000e+000 0.000000000000e+000 3.576093467888e+005 3.318019294629e+005 3.784820853840e+005 3.805369756611e+005 0.000000000000e+000 3.719577741620e+005 2.353807416779e+005 2.586176107475e+005 2.754751960500e+005 2.905318466981e+005 2.092325354271e+005 2.096329603203e+005 2.317015934424e+005 1.750216373418e+005 1.327176645328e+005 3.265233132307e+005 3.740864572362e+004 3.388745114276e+005 0.000000000000e+000 3.512845655405e+005 0.000000000000e+000 0.000000000000e+000 3.703834759537e+004 1.326530214860e+005 1.761528362459e+005 3.513004651086e+005 3.388843244883e+005 2.905046162614e+005 2.754862102757e+005 2.586275558823e+005 0.000000000000e+000 3.610425316168e+005 3.025806766172e+005 0.000000000000e+000 0.000000000000e+000 0.000000000000e+000 3.582602329519e+005 3.618974622701e+005 3.762691999422e+005 3.152399603358e+005 0.000000000000e+000 0.000000000000e+000 1.083633907484e+005 1.616390815826e+005 1.983603423887e+005 3.556076154754e+005 3.427817963412e+005 3.327006053262e+005 2.453555931686e+005 2.825431989933e+005 2.990637924838e+005 2.666017393334e+005 2.205448256208e+005 0.000000000000e+000 0.000000000000e+000 0.000000000000e+000 0.000000000000e+000 1.357275645988e+005 1.794835400983e+005 3.387910143540e+005 2.905555831226e+005 2.745669360886e+005 2.554157132252e+005 3.827354852501e+005 3.187153297811e+005 2.095671435015e+005 2.092551303191e+005 3.059178870409e+005 0.000000000000e+000 3.859348002032e+005 3.290031381953e+005 3.014864515860e+005 1.942336856185e+005 1.582633561249e+005 1.033497068956e+005 0.000000000000e+000 0.000000000000e+000 3.331128541677e+005 3.448167810805e+005 3.555318070222e+005 2.659846330287e+005 2.453129597242e+005 2.986396084185e+005 2.824254782560e+005 0.000000000000e+000 0.000000000000e+000 2.824275137619e+005 2.659679238125e+005 1.032996399427e+005 2.453158743881e+005 1.582141825260e+005 1.941553742571e+005 3.448411751897e+005 2.208488362778e+005 2.209068920623e+005 3.674967962891e+005 3.225823705433e+005 3.697163257388e+005 2.994586598020e+005 3.160309962181e+005 0.000000000000e+000 0.000000000000e+000 3.110604187130e+005 3.075703595320e+005 3.156609742232e+005 2.050168601957e+005 2.358577059778e+005 2.318134704091e+005 2.123588114703e+005 2.519423199460e+005 2.704195218829e+005 2.896980422806e+005 1.824114535590e+005 3.489927281320e+005 3.380930037034e+005 0.000000000000e+000 6.866846894023e+004 1.415901798131e+005 0.000000000000e+000 3.489904063484e+005 6.872880037337e+004 3.380902719132e+005 2.896996090449e+005 2.703996779623e+005 2.523251132097e+005 1.415958795854e+005 1.824158381358e+005 3.828309146630e+005 3.761454694471e+005 0.000000000000e+000 3.828234742338e+005 2.352113514931e+005 2.353058779708e+005 3.492765209304e+005 3.492803930025e+005 4.984039864900e+004 5.031740776912e+004 0.000000000000e+000 3.718619728141e+005 3.783833467443e+005 3.610253539535e+005 3.699690100417e+005 0.000000000000e+000 3.859385275360e+005 0.000000000000e+000 3.859362959951e+005 3.739841800065e+005 0.000000000000e+000 0.000000000000e+000 1.797832769977e+005 1.352469358267e+005 3.387154567490e+005 2.555063375092e+005 2.907617757694e+005 2.749238992876e+005 0.000000000000e+000 3.653236741625e+005 3.652819653001e+005 3.762849370061e+005 3.069099284449e+005 3.257315180474e+005 3.763044322200e+005 3.616404292061e+005 3.554292994798e+005 3.218309024525e+005 3.647744666739e+005 0.000000000000e+000 0.000000000000e+000 3.247621214876e+005 3.073193421889e+005 0.000000000000e+000 3.266335455723e+005 3.071795603171e+005 3.111345584441e+005 0.000000000000e+000 3.578860047912e+005 0.000000000000e+000 2.861209885546e+005 2.693109247439e+005 2.521779447238e+005 2.133006701214e+005 3.426167780202e+005 1.170157265381e+005 3.317230612472e+005 1.691615095612e+005 2.054907564093e+005 0.000000000000e+000 3.677598295451e+005 3.119375816080e+005 3.185113010316e+005 3.264807013558e+005 3.720963920508e+005 0.000000000000e+000 3.859402685858e+005 0.000000000000e+000 3.860798573009e+005 3.785199859348e+005 3.614017462854e+005 3.163197985354e+005 3.218142169840e+005 0.000000000000e+000 3.333655594257e+005 2.982477253209e+005 3.652924927379e+005 3.068381064644e+005 3.698240834596e+005 1.907342566597e+005 1.507047675373e+005 8.787057953234e+004 3.336046803938e+005 3.455515582291e+005 7.583777518692e+004 0.000000000000e+000 1.447863311869e+005 1.120275353114e+004 1.869920431067e+005 3.486066769866e+005 3.354127095202e+005 3.512089332743e+005 2.936539150443e+005 2.596477136615e+005 2.759352204572e+005 2.390636031550e+005 0.000000000000e+000 0.000000000000e+000 3.520135048698e+005 2.278469777765e+005 2.942379547068e+005 2.793313190135e+005 2.599433415944e+005 2.436414069445e+005 2.283008901599e+005 2.208822267312e+005 2.453057062650e+005 2.824253624198e+005 2.659917048237e+005 2.986430849849e+005 0.000000000000e+000 0.000000000000e+000 1.032583407476e+005 1.941736274415e+005 1.581762756713e+005 3.555247876747e+005 3.448411109946e+005 3.331421396107e+005 3.257893767885e+005 3.617813644798e+005 0.000000000000e+000 3.785138192720e+005 2.284417159102e+005 2.389287136838e+005 2.595471196393e+005 2.783548710704e+005 2.935405025930e+005 1.656627003136e+004 0.000000000000e+000 3.511102844131e+005 7.415238851914e+004 1.446515020179e+005 1.868485869765e+005 3.487999397092e+005 3.354545439324e+005 3.158939323874e+005 0.000000000000e+000 3.187804467770e+005 0.000000000000e+000 2.240358791425e+005 2.207780530434e+005 2.451006004615e+005 2.656736515686e+005 2.821946378659e+005 2.983193281576e+005 0.000000000000e+000 0.000000000000e+000 1.046550565696e+005 1.620117486039e+005 1.937247263605e+005 3.447294831391e+005 1.942922859249e+005 2.822976711863e+005 2.636316961968e+005 2.451549746605e+005 1.583112083958e+005 1.033935691881e+005 3.330785292967e+005 0.000000000000e+000 3.447947311353e+005 0.000000000000e+000 3.555287036007e+005 3.699577310149e+005 0.000000000000e+000 3.551345862706e+005 0.000000000000e+000 2.792550477093e+005 2.442799538252e+005 2.626224589103e+005 2.946944617580e+005 3.447622534189e+005 9.417601429587e+004 3.330714970714e+005 1.540318151157e+005 1.904865200117e+005 2.242983577142e+005 3.784221248955e+005 0.000000000000e+000 3.859399160337e+005 0.000000000000e+000 0.000000000000e+000 0.000000000000e+000 3.189386356670e+005 3.120977614160e+005 3.654408190398e+005 3.554657466254e+005 0.000000000000e+000 3.780299223767e+005 0.000000000000e+000 0.000000000000e+000 3.615545363732e+005 2.055617336119e+005 1.728392125667e+005 3.290930550274e+005 1.268759019491e+005 3.420106832081e+005 2.520893255499e+005 2.693009609941e+005 2.860488664216e+005 2.133172703695e+005 0.000000000000e+000 3.581435581853e+005 0.000000000000e+000 3.264961205261e+005 3.059866620927e+005 3.191940064036e+005 3.741081888538e+005 3.762653532964e+005 0.000000000000e+000 3.825437582272e+005 0.000000000000e+000 3.825436880542e+005 2.981954237312e+005 3.333480866151e+005 3.014986447961e+005 3.719873049859e+005 0.000000000000e+000 3.827450074108e+005 3.221905527648e+005 3.115222334754e+005 3.192967782865e+005 3.654631921670e+005 3.740056779546e+005 3.698055085383e+005 3.295103416486e+005 3.740114867092e+005 3.678047167952e+005 3.190837307658e+005 3.763794139529e+005 3.741944795438e+005 3.157807450462e+005 3.251561711215e+005 3.113438497319e+005 3.219070238804e+005 0.000000000000e+000 3.803106841481e+005 3.580056336268e+005 2.204798971609e+005 2.124282284897e+005 0.000000000000e+000 0.000000000000e+000 0.000000000000e+000 0.000000000000e+000 1.234595642030e+005 1.727832662844e+005 3.420271405962e+005 1.977873692283e+005 2.049530760027e+005 2.990701246804e+005 3.016214511550e+005 2.852901431102e+005 2.896325185431e+005 2.703256152366e+005 2.661827151328e+005 2.485684602935e+005 2.526361845729e+005 3.805712435528e+005 0.000000000000e+000 0.000000000000e+000 0.000000000000e+000 0.000000000000e+000 3.828567844045e+005 0.000000000000e+000 2.395055605828e+005 2.597296068478e+005 2.791327242819e+005 2.934772194414e+005 2.280159016020e+005 2.162598282360e+005 2.021494229791e+005 1.693221774117e+005 3.292751099160e+005 1.178165949814e+005 3.425547049152e+005 0.000000000000e+000 3.519819907095e+005 0.000000000000e+000 0.000000000000e+000 0.000000000000e+000 0.000000000000e+000 1.178382011329e+005 1.69320