<?xml version="1.0"?>
<VTKFile type="UnstructuredGrid" version="0.1" byte_order="LittleEndian">
  <UnstructuredGrid>
    <Piece NumberOfPoints="2604" NumberOfCells="4910">
      <Points>
        <DataArray type="Float64" NumberOfComponents="3" format="ascii">
          0.000000000000e+000 0.000000000000e+000 0.000000000000e+000
          2.000000000000e+002 0.000000000000e+000 0.000000000000e+000
          2.000000000000e+002 2.000000000000e+001 0.000000000000e+000
          0.000000000000e+000 2.000000000000e+001 0.000000000000e+000
          1.492537313427e+000 0.000000000000e+000 0.000000000000e+000
          2.985074626854e+000 0.000000000000e+000 0.000000000000e+000
          4.477611940281e+000 0.000000000000e+000 0.000000000000e+000
          5.970149253708e+000 0.000000000000e+000 0.000000000000e+000
          7.462686567135e+000 0.000000000000e+000 0.000000000000e+000
          8.955223880561e+000 0.000000000000e+000 0.000000000000e+000
          1.044776119399e+001 0.000000000000e+000 0.000000000000e+000
          1.194029850741e+001 0.000000000000e+000 0.000000000000e+000
          1.343283582084e+001 0.000000000000e+000 0.000000000000e+000
          1.492537313427e+001 0.000000000000e+000 0.000000000000e+000
          1.641791044770e+001 0.000000000000e+000 0.000000000000e+000
          1.791044776112e+001 0.000000000000e+000 0.000000000000e+000
          1.940298507455e+001 0.000000000000e+000 0.000000000000e+000
          2.089552238798e+001 0.000000000000e+000 0.000000000000e+000
          2.238805970141e+001 0.000000000000e+000 0.000000000000e+000
          2.388059701484e+001 0.000000000000e+000 0.000000000000e+000
          2.537313432826e+001 0.000000000000e+000 0.000000000000e+000
          2.686567164169e+001 0.000000000000e+000 0.000000000000e+000
          2.835820895511e+001 0.000000000000e+000 0.000000000000e+000
          2.985074626854e+001 0.000000000000e+000 0.000000000000e+000
          3.134328358196e+001 0.000000000000e+000 0.000000000000e+000
          3.283582089539e+001 0.000000000000e+000 0.000000000000e+000
          3.432835820881e+001 0.000000000000e+000 0.000000000000e+000
          3.582089552224e+001 0.000000000000e+000 0.000000000000e+000
          3.731343283566e+001 0.000000000000e+000 0.000000000000e+000
          3.880597014909e+001 0.000000000000e+000 0.000000000000e+000
          4.029850746251e+001 0.000000000000e+000 0.000000000000e+000
          4.179104477594e+001 0.000000000000e+000 0.000000000000e+000
          4.328358208936e+001 0.000000000000e+000 0.000000000000e+000
          4.477611940279e+001 0.000000000000e+000 0.000000000000e+000
          4.626865671621e+001 0.000000000000e+000 0.000000000000e+000
          4.776119402964e+001 0.000000000000e+000 0.000000000000e+000
          4.925373134306e+001 0.000000000000e+000 0.000000000000e+000
          5.074626865649e+001 0.000000000000e+000 0.000000000000e+000
          5.223880596991e+001 0.000000000000e+000 0.000000000000e+000
          5.373134328334e+001 0.000000000000e+000 0.000000000000e+000
          5.522388059676e+001 0.000000000000e+000 0.000000000000e+000
          5.671641791019e+001 0.000000000000e+000 0.000000000000e+000
          5.820895522361e+001 0.000000000000e+000 0.000000000000e+000
          5.970149253704e+001 0.000000000000e+000 0.000000000000e+000
          6.119402985046e+001 0.000000000000e+000 0.000000000000e+000
          6.268656716389e+001 0.000000000000e+000 0.000000000000e+000
          6.417910447732e+001 0.000000000000e+000 0.000000000000e+000
          6.567164179075e+001 0.000000000000e+000 0.000000000000e+000
          6.716417910418e+001 0.000000000000e+000 0.000000000000e+000
          6.865671641761e+001 0.000000000000e+000 0.000000000000e+000
          7.014925373104e+001 0.000000000000e+000 0.000000000000e+000
          7.164179104447e+001 0.000000000000e+000 0.000000000000e+000
          7.313432835790e+001 0.000000000000e+000 0.000000000000e+000
          7.462686567133e+001 0.000000000000e+000 0.000000000000e+000
          7.611940298476e+001 0.000000000000e+000 0.000000000000e+000
          7.761194029819e+001 0.000000000000e+000 0.000000000000e+000
          7.910447761162e+001 0.000000000000e+000 0.000000000000e+000
          8.059701492505e+001 0.000000000000e+000 0.000000000000e+000
          8.208955223848e+001 0.000000000000e+000 0.000000000000e+000
          8.358208955191e+001 0.000000000000e+000 0.000000000000e+000
          8.507462686534e+001 0.000000000000e+000 0.000000000000e+000
          8.656716417877e+001 0.000000000000e+000 0.000000000000e+000
          8.805970149220e+001 0.000000000000e+000 0.000000000000e+000
          8.955223880563e+001 0.000000000000e+000 0.000000000000e+000
          9.104477611907e+001 0.000000000000e+000 0.000000000000e+000
          9.253731343250e+001 0.000000000000e+000 0.000000000000e+000
          9.402985074593e+001 0.000000000000e+000 0.000000000000e+000
          9.552238805936e+001 0.000000000000e+000 0.000000000000e+000
          9.701492537279e+001 0.000000000000e+000 0.000000000000e+000
          9.850746268622e+001 0.000000000000e+000 0.000000000000e+000
          9.999999999965e+001 0.000000000000e+000 0.000000000000e+000
          1.014925373131e+002 0.000000000000e+000 0.000000000000e+000
          1.029850746265e+002 0.000000000000e+000 0.000000000000e+000
          1.044776119399e+002 0.000000000000e+000 0.000000000000e+000
          1.059701492534e+002 0.000000000000e+000 0.000000000000e+000
          1.074626865668e+002 0.000000000000e+000 0.000000000000e+000
          1.089552238802e+002 0.000000000000e+000 0.000000000000e+000
          1.104477611937e+002 0.000000000000e+000 0.000000000000e+000
          1.119402985071e+002 0.000000000000e+000 0.000000000000e+000
          1.134328358205e+002 0.000000000000e+000 0.000000000000e+000
          1.149253731340e+002 0.000000000000e+000 0.000000000000e+000
          1.164179104474e+002 0.000000000000e+000 0.000000000000e+000
          1.179104477608e+002 0.000000000000e+000 0.000000000000e+000
          1.194029850742e+002 0.000000000000e+000 0.000000000000e+000
          1.208955223877e+002 0.000000000000e+000 0.000000000000e+000
          1.223880597011e+002 0.000000000000e+000 0.000000000000e+000
          1.238805970145e+002 0.000000000000e+000 0.000000000000e+000
          1.253731343280e+002 0.000000000000e+000 0.000000000000e+000
          1.268656716414e+002 0.000000000000e+000 0.000000000000e+000
          1.283582089548e+002 0.000000000000e+000 0.000000000000e+000
          1.298507462683e+002 0.000000000000e+000 0.000000000000e+000
          1.313432835817e+002 0.000000000000e+000 0.000000000000e+000
          1.328358208952e+002 0.000000000000e+000 0.000000000000e+000
          1.343283582086e+002 0.000000000000e+000 0.000000000000e+000
          1.358208955220e+002 0.000000000000e+000 0.000000000000e+000
          1.373134328355e+002 0.000000000000e+000 0.000000000000e+000
          1.388059701489e+002 0.000000000000e+000 0.000000000000e+000
          1.402985074624e+002 0.000000000000e+000 0.000000000000e+000
          1.417910447758e+002 0.000000000000e+000 0.000000000000e+000
          1.432835820892e+002 0.000000000000e+000 0.000000000000e+000
          1.447761194027e+002 0.000000000000e+000 0.000000000000e+000
          1.462686567161e+002 0.000000000000e+000 0.000000000000e+000
          1.477611940296e+002 0.000000000000e+000 0.000000000000e+000
          1.492537313430e+002 0.000000000000e+000 0.000000000000e+000
          1.507462686564e+002 0.000000000000e+000 0.000000000000e+000
          1.522388059699e+002 0.000000000000e+000 0.000000000000e+000
          1.537313432833e+002 0.000000000000e+000 0.000000000000e+000
          1.552238805968e+002 0.000000000000e+000 0.000000000000e+000
          1.567164179102e+002 0.000000000000e+000 0.000000000000e+000
          1.582089552237e+002 0.000000000000e+000 0.000000000000e+000
          1.597014925371e+002 0.000000000000e+000 0.000000000000e+000
          1.611940298505e+002 0.000000000000e+000 0.000000000000e+000
          1.626865671640e+002 0.000000000000e+000 0.000000000000e+000
          1.641791044774e+002 0.000000000000e+000 0.000000000000e+000
          1.656716417909e+002 0.000000000000e+000 0.000000000000e+000
          1.671641791043e+002 0.000000000000e+000 0.000000000000e+000
          1.686567164177e+002 0.000000000000e+000 0.000000000000e+000
          1.701492537312e+002 0.000000000000e+000 0.000000000000e+000
          1.716417910446e+002 0.000000000000e+000 0.000000000000e+000
          1.731343283581e+002 0.000000000000e+000 0.000000000000e+000
          1.746268656715e+002 0.000000000000e+000 0.000000000000e+000
          1.761194029849e+002 0.000000000000e+000 0.000000000000e+000
          1.776119402984e+002 0.000000000000e+000 0.000000000000e+000
          1.791044776118e+002 0.000000000000e+000 0.000000000000e+000
          1.805970149253e+002 0.000000000000e+000 0.000000000000e+000
          1.820895522387e+002 0.000000000000e+000 0.000000000000e+000
          1.835820895521e+002 0.000000000000e+000 0.000000000000e+000
          1.850746268656e+002 0.000000000000e+000 0.000000000000e+000
          1.865671641790e+002 0.000000000000e+000 0.000000000000e+000
          1.880597014925e+002 0.000000000000e+000 0.000000000000e+000
          1.895522388059e+002 0.000000000000e+000 0.000000000000e+000
          1.910447761194e+002 0.000000000000e+000 0.000000000000e+000
          1.925373134328e+002 0.000000000000e+000 0.000000000000e+000
          1.940298507462e+002 0.000000000000e+000 0.000000000000e+000
          1.955223880597e+002 0.000000000000e+000 0.000000000000e+000
          1.970149253731e+002 0.000000000000e+000 0.000000000000e+000
          1.985074626866e+002 0.000000000000e+000 0.000000000000e+000
          2.000000000000e+002 1.428571428570e+000 0.000000000000e+000
          2.000000000000e+002 2.857142857140e+000 0.000000000000e+000
[...]
      <PointData Scalars="Capillary_Pressure">
        <DataArray type="Float64" Name="Capillary_Pressure" format="ascii">
          3.858710812934e+005 0.000000000000e+000 0.000000000000e+000 3.858733514677e+005 3.860980140288e+005 3.833685225771e+005 3.825061717451e+005 3.805758354767e+005 3.803028988070e+005 3.784091382428e+005 3.763818620408e+005 3.763058728900e+005 3.741384708725e+005 3.739707618447e+005 3.720880686280e+005 3.697183353691e+005 3.697645415015e+005 3.677467345527e+005 3.673372686587e+005 3.652331070591e+005 3.618392864439e+005 3.616326630684e+005 3.610665261602e+005 3.580616730238e+005 3.577249989238e+005 3.555389835419e+005 3.549126686722e+005 3.517716448809e+005 3.512693017598e+005 3.492034860352e+005 3.485637717653e+005 3.453632402324e+005 3.448371428108e+005 3.428583615709e+005 3.421199322476e+005 3.385198757867e+005 3.384318537262e+005 3.358218606369e+005 3.334315684956e+005 3.331427430095e+005 3.323437256303e+005 3.291869478778e+005 3.265080613694e+005 3.261387331312e+005 3.224704314739e+005 3.220028545492e+005 3.191746047037e+005 3.186795716384e+005 3.162383483586e+005 3.153288169165e+005 3.112396726518e+005 3.110484884328e+005 3.071895286642e+005 3.066281719933e+005 3.026659933844e+005 3.012930645001e+005 2.991076572166e+005 2.986380345411e+005 2.975073739626e+005 2.937135487967e+005 2.904907172546e+005 2.901140845767e+005 2.860595771235e+005 2.853611807731e+005 2.824309964235e+005 2.790497436582e+005 2.760373571074e+005 2.754132301504e+005 2.708635071523e+005 2.692559671627e+005 2.666440918650e+005 2.634880913609e+005 2.626226634668e+005 2.597436067415e+005 2.560052564908e+005 2.526762122775e+005 2.521234965454e+005 2.485755172992e+005 2.453293752617e+005 2.440114663318e+005 2.383018399437e+005 2.349254742589e+005 2.317770826331e+005 2.281712055953e+005 2.246327845342e+005 2.209013038007e+005 2.201684222272e+005 2.166532663470e+005 2.127605014249e+005 2.092185380358e+005 2.019971326451e+005 1.981251736005e+005 1.941881254362e+005 1.898301674270e+005 1.871839380704e+005 1.796106036853e+005 1.750851137938e+005 1.725952957665e+005 1.644415222166e+005 1.582107771440e+005 1.551324069953e+005 1.449995108771e+005 1.384601883270e+005 1.313753407427e+005 1.226038923809e+005 1.133861108658e+005 1.033149945620e+005 9.111045876341e+004 7.764929336159e+004 6.084021978520e+004 3.896607139324e+004 7.598777251683e+003 0.000000000000e+000 0.000000000000e+000 0.000000000000e+000 0.000000000000e+000 0.000000000000e+000 0.000000000000e+000 0.000000000000e+000 0.000000000000e+000 0.000000000000e+000 0.000000000000e+000 0.000000000000e+000 0.000000000000e+000 0.000000000000e+000 0.000000000000e+000 0.000000000000e+000 0.000000000000e+000 0.000000000000e+000 0.000000000000e+000 0.000000000000e+000 0.000000000000e+000 0.000000000000e+000 0.000000000000e+000 0.000000000000e+000 0.000000000000e+000 0.000000000000e+000 0.000000000000e+000 0.000000000000e+000 0.000000000000e+000 0.000000000000e+000 0.000000000000e+000 0.000000000000e+000 0.000000000000e+000 0.000000000000e+000 0.000000000000e+000 0.000000000000e+000 0.000000000000e+000 0.000000000000e+000 0.000000000000e+000 0.000000000000e+000 0.000000000000e+000 0.000000000000e+000 0.000000000000e+000 0.000000000000e+000 0.000000000000e+000 0.000000000000e+000 0.000000000000e+000 0.000000000000e+000 0.000000000000e+000 0.000000000000e+000 0.000000000000e+000 0.000000000000e+000 0.000000000000e+000 0.000000000000e+000 0.000000000000e+000 0.000000000000e+000 0.000000000000e+000 0.000000000000e+000 0.000000000000e+000 0.000000000000e+000 0.000000000000e+000 0.000000000000e+000 0.000000000000e+000 0.000000000000e+000 7.594696683202e+003 3.895484842056e+004 6.081161205564e+004 7.764004280799e+004 9.109585722095e+004 1.033181624012e+005 1.134070646511e+005 1.225922059101e+005 1.313730810986e+005 1.384537635472e+005 1.449927636913e+005 1.551284796261e+005 1.582029920578e+005 1.644251172544e+005 1.725880972378e+005 1.750821430367e+005 1.796129483363e+005 1.871765880295e+005 1.898249962577e+005 1.941780448931e+005 1.981045706860e+005 2.019749589710e+005 2.092137662102e+005 2.127641683891e+005 2.166545254974e+005 2.201686393841e+005 2.208969023686e+005 2.246427677032e+005 2.281799481581e+005 2.317682004219e+005 2.349278672985e+005 2.382850724938e+005 2.439992689539e+005 2.453130401216e+005 2.485785281927e+005 2.521093541345e+005 2.526627365176e+005 2.559918151418e+005 2.597330049202e+005 2.626367212954e+005 2.659858776117e+005 2.666422788940e+005 2.692384955736e+005 2.708419779205e+005 2.754260872123e+005 2.786075198119e+005 2.790358290686e+005 2.823668928045e+005 2.853618062779e+005 2.860613606296e+005 2.901169570935e+005 2.904973831349e+005 2.937426866510e+005 2.975031307122e+005 2.986440096706e+005 2.991210791457e+005 3.013186730373e+005 3.056619564313e+005 3.066496839577e+005 3.071906402033e+005 3.110515787034e+005 3.112802968767e+005 3.153097693421e+005 3.162099528801e+005 3.186645618921e+005 3.191499612991e+005 3.219865732637e+005 3.252456818103e+005 3.261371900869e+005 3.264978138939e+005 3.291788669610e+005 3.323481212632e+005 3.331446441578e+005 3.334240924869e+005 3.358243392346e+005 3.384325257367e+005 3.385183453671e+005 3.421162452905e+005 3.428546975733e+005 3.448344499006e+005 3.453662158301e+005 3.485617098475e+005 3.492025382814e+005 3.512683306774e+005 3.517658526564e+005 3.549136775290e+005 3.555333632105e+005 3.577255505248e+005 3.580654684471e+005 3.610658935634e+005 3.616366925230e+005 3.618480547622e+005 3.652235831189e+005 3.673347015014e+005 3.677483293264e+005 3.697721623858e+005 3.697133751472e+005 3.720779723816e+005 3.721357211332e+005 3.741560067207e+005 3.763012818925e+005 3.763769258512e+005 3.784151716591e+005 3.803094938213e+005 3.805894992122e+005 3.824652562844e+005 3.833702327698e+005 3.860974859788e+005 3.858723380048e+005 3.858698595196e+005 3.858736491111e+005 3.858722408525e+005 3.858705440459e+005 3.858710506384e+005 3.858710749810e+005 3.858700080388e+005 3.858706450826e+005 3.858716846484e+005 3.858721826629e+005 3.858690729289e+005 3.858701902454e+005 0.000000000000e+000 3.783911136995e+005 0.000000000000e+000 0.000000000000e+000 5.196858428988e+004 1.353018457953e+005 1.796399829187e+005 3.614255999723e+005 2.088416664591e+005 3.492373206994e+005 3.387000745778e+005 3.264021241630e+005 3.062801142873e+005 2.907267730171e+005 2.748870428638e+005 2.556245997836e+005 2.352649813941e+005 3.699616334760e+005 3.162272975668e+005 2.208840190161e+005 2.239017822962e+005 2.453092370284e+005 2.659865909678e+005 2.823536618235e+005 2.986440930039e+005 0.000000000000e+000 0.000000000000e+000 1.021079156826e+005 2.986407971739e+005 2.825347458928e+005 2.658383312576e+005 2.449492007739e+005 1.580187227093e+005 1.941793362767e+005 3.555480579428e+005 3.449115951062e+005 3.330721256271e+005 1.941160272272e+005 1.581864977438e+005 1.032974526775e+005 0.000000000000e+000 0.000000000000e+000 3.331729143161e+005 3.448390817573e+005 3.555252414219e+005 0.000000000000e+000 0.000000000000e+000 3.192697999318e+005 3.116008257287e+005 3.739696168277e+005 3.652232489394e+005 0.000000000000e+000 3.805839560041e+005 0.000000000000e+000 3.805914020433e+005 3.737267711409e+005 3.652707222746e+005 3.221340601518e+005 3.108099103010e+005 0.000000000000e+000 2.352540385321e+005 0.000000000000e+000 2.556177306022e+005 2.748781623898e+005 2.907126813644e+005 3.059040016602e+005 2.088912531463e+005 5.031656857233e+004 1.344106791659e+005 1.795967201708e+005 3.492766373799e+005 3.387692625835e+005 2.098252321112e+005 1.797533792114e+005 1.352238444255e+005 5.087852390189e+004 2.907265124863e+005 2.748738583749e+005 2.556397852986e+005 0.000000000000e+000 2.352447242476e+005 0.000000000000e+000 3.264702977752e+005 3.387254845627e+005 3.492700756953e+005 3.614276437338e+005 0.000000000000e+000 0.000000000000e+000 3.763751559796e+005 3.610541395939e+005 3.024838378932e+005 3.286704073504e+005 0.000000000000e+000 3.825194363357e+005 3.699473865989e+005 3.783552573764e+005 3.699634311594e+005 3.162803359687e+005 3.217403223252e+005 3.112980079494e+005 3.741488465671e+005 3.651896608855e+005 3.161995523719e+005 0.000000000000e+000 9.307402232204e+004 0.000000000000e+000 1.552457694119e+005 0.000000000000e+000 1.902551540737e+005 2.442160183427e+005 2.792058887610e+005 2.946580934816e+005 2.627363375325e+005 3.549302110247e+005 3.333694904245e+005 3.448763977736e+005 2.245128180143e+005 3.162308262823e+005 0.000000000000e+000 3.833576161143e+005 0.000000000000e+000 3.833524221598e+005 2.396850281844e+005 2.598781788573e+005 2.792510642370e+005 2.941685113349e+005 2.020144511151e+005 2.280114804149e+005 2.167179482323e+005 1.691055390898e+005 3.293776438153e+005 1.169498624502e+005 3.426419499114e+005 0.000000000000e+000 3.520577349308e+005 0.000000000000e+000 0.000000000000e+000 0.000000000000e+000 0.000000000000e+000 0.000000000000e+000 1.177597064336e+005 8.695242241776e+004 1.692467604144e+005 1.518263201105e+005 3.519950432811e+005 1.906878323626e+005 2.020330290661e+005 3.425946525523e+005 3.455569490186e+005 2.941570720819e+005 2.792277670074e+005 2.597945584773e+005 2.856896778833e+005 2.669916352830e+005 2.436177039219e+005 2.482336154267e+005 3.334731557941e+005 2.167015159146e+005 2.277532737390e+005 0.000000000000e+000 3.578946653105e+005 0.000000000000e+000 3.454832422411e+005 8.896692055127e+004 3.335560964517e+005 1.512306491053e+005 3.015177729132e+005 2.858198943869e+005 2.671279004008e+005 2.514018247039e+005 1.908392965832e+005 3.699426086474e+005 0.000000000000e+000 0.000000000000e+000 3.106512365175e+005 3.246931297454e+005 3.650384158781e+005 2.168155948583e+005 2.669718628804e+005 2.481847743769e+005 2.856466983086e+005 3.014981183615e+005 3.578652700680e+005 3.426947142177e+005 0.000000000000e+000 3.294109274801e+005 0.000000000000e+000 1.183991903398e+005 2.018945087793e+005 1.653372165356e+005 3.577318731715e+005 0.000000000000e+000 0.000000000000e+000 3.148151440578e+005 3.741403567888e+005 0.000000000000e+000 2.165118151675e+005 2.053832471057e+005 1.727036677536e+005 3.289918561132e+005 1.233668019134e+005 3.420753533583e+005 2.861270661808e+005 2.692980149513e+005 2.521864946074e+005 0.000000000000e+000 3.580609241049e+005 0.000000000000e+000 3.675250463811e+005 3.017383158791e+005 0.000000000000e+000 0.000000000000e+000 0.000000000000e+000 2.989976990491e+005 3.324357443624e+005 3.071174132777e+005 3.253912449497e+005 3.803166894741e+005 3.618054164010e+005 3.762705094553e+005 3.720075989475e+005 3.617993698250e+005 2.383204883368e+005 2.597491474842e+005 2.786358379519e+005 2.937556078876e+005 5.715035531108e+003 3.517751238050e+005 0.000000000000e+000 2.282341847623e+005 1.871977220056e+005 9.051946138964e+003 1.448870524728e+005 0.000000000000e+000 7.758749146737e+004 2.388726440751e+005 2.597636969332e+005 2.785704664252e+005 2.936996370408e+005 3.517107028362e+005 3.357973367288e+005 3.485758775321e+005 3.485754479278e+005 7.677589551296e+004 3.353778090490e+005 1.449026637414e+005 1.871142196396e+005 2.282113224988e+005 0.000000000000e+000 0.000000000000e+000 3.833549102894e+005 3.833609998609e+005 0.000000000000e+000 3.798766257525e+005 0.000000000000e+000 0.000000000000e+000 3.784562321692e+005 0.000000000000e+000 3.762880188868e+005 3.798885225415e+005 3.255772439156e+005 3.065276903601e+005 3.612440258904e+005 3.761954233486e+005 3.261887162269e+005 3.676351340323e+005 3.677766913605e+005 3.065390116532e+005 3.719054612074e+005 3.216879134931e+005 3.149507817412e+005 3.720665878064e+005 3.423979139228e+005 2.015834332877e+005 1.685263687870e+005 1.205603758321e+005 0.000000000000e+000 0.000000000000e+000 2.169509982026e+005 3.017658044218e+005 2.855084210991e+005 2.697667919470e+005 2.518419531847e+005 3.190759729338e+005 3.677133908685e+005 3.118535075299e+005 3.186532272308e+005 0.000000000000e+000 0.000000000000e+000 3.576140079418e+005 3.318061882151e+005 3.784867231527e+005 3.805415732306e+005 0.000000000000e+000 3.719624452220e+005 2.353837485878e+005 2.586208430425e+005 2.754786101083e+005 2.905356905531e+005 2.092348589406e+005 2.096354682384e+005 2.317044999244e+005 1.750239884737e+005 1.327201152617e+005 3.265276467314e+005 3.741460024215e+004 3.388790239009e+005 0.000000000000e+000 3.512891464288e+005 0.000000000000e+000 0.000000000000e+000 3.704433432725e+004 1.326554790331e+005 1.761551287477e+005 3.513050434976e+005 3.388888630717e+005 2.905084384619e+005 2.754896307282e+005 2.586307484162e+005 0.000000000000e+000 3.610471675488e+005 3.025846225055e+005 0.000000000000e+000 0.000000000000e+000 0.000000000000e+000 3.582649326158e+005 3.619021065689e+005 3.762738573368e+005 3.152440349489e+005 0.000000000000e+000 0.000000000000e+000 1.083662702901e+005 1.616414192526e+005 1.983626823289e+005 3.556122836654e+005 3.427863563833e+005 3.327052289096e+005 2.453586717958e+005 2.825465903189e+005 2.990676079365e+005 2.666050151411e+005 2.205473196024e+005 0.000000000000e+000 0.000000000000e+000 0.000000000000e+000 0.000000000000e+000 1.357299823620e+005 1.794857982409e+005 3.387954817693e+005 2.905592089346e+005 2.745702818140e+005 2.554187881548e+005 3.827400310276e+005 3.187193102941e+005 2.095696991442e+005 2.092576911061e+005 3.059218175071e+005 0.000000000000e+000 3.859392672967e+005 3.290075277242e+005 3.014903233095e+005 1.942363199759e+005 1.582657169653e+005 1.033526726619e+005 0.000000000000e+000 0.000000000000e+000 3.331172253282e+005 3.448213660192e+005 3.555364468116e+005 2.659879896848e+005 2.453158701167e+005 2.986434246183e+005 2.824290424253e+005 0.000000000000e+000 0.000000000000e+000 2.824312487256e+005 2.659712479830e+005 1.033025966282e+005 2.453187964834e+005 1.582165383180e+005 1.941579977418e+005 3.448457872558e+005 2.208514246840e+005 2.209094852595e+005 3.675014382124e+005 3.225865303829e+005 3.697209592045e+005 2.994625620641e+005 3.160351437086e+005 0.000000000000e+000 0.000000000000e+000 3.110645925788e+005 3.075743754192e+005 3.156651111053e+005 2.050193930528e+005 2.358605349595e+005 2.318162157736e+005 2.123614552750e+005 2.519454846128e+005 2.704229081574e+005 2.897017090235e+005 1.824138456446e+005 3.489973249966e+005 3.380974339842e+005 0.000000000000e+000 6.867257670226e+004 1.415925969360e+005 0.000000000000e+000 3.489950045929e+005 6.873290876925e+004 3.380947243577e+005 2.897033432086e+005 2.704030946593e+005 2.523282254210e+005 1.415982951323e+005 1.824181957135e+005 3.828354814056e+005 3.761501583405e+005 0.000000000000e+000 3.828280372927e+005 2.352140995245e+005 2.353087234603e+005 3.492811565854e+005 3.492849901921e+005 4.984550562239e+004 5.032247953890e+004 0.000000000000e+000 3.718667255184e+005 3.783879606092e+005 3.610299675824e+005 3.699736579693e+005 0.000000000000e+000 3.859430229658e+005 0.000000000000e+000 3.859407832008e+005 3.739888663292e+005 0.000000000000e+000 0.000000000000e+000 1.797855190370e+005 1.352494084894e+005 3.387199613769e+005 2.555093926257e+005 2.907654317388e+005 2.749272537434e+005 0.000000000000e+000 3.653283142515e+005 3.652866254514e+005 3.762896335781e+005 3.069139258375e+005 3.257357609948e+005 3.763090863941e+005 3.616451060195e+005 3.554339395116e+005 3.218350743354e+005 3.647791654002e+005 0.000000000000e+000 0.000000000000e+000 3.247664179956e+005 3.073233317818e+005 0.000000000000e+000 3.266378045272e+005 3.071835909762e+005 3.111385855814e+005 0.000000000000e+000 3.578906450086e+005 0.000000000000e+000 2.861246151541e+005 2.693144642185e+005 2.521808917540e+005 2.133030967125e+005 3.426213088630e+005 1.170184246397e+005 3.317262522125e+005 1.691637816866e+005 2.054932642050e+005 0.000000000000e+000 3.677644463809e+005 3.119416814801e+005 3.185155196745e+005 3.264849835546e+005 3.721011548540e+005 0.000000000000e+000 3.859447898769e+005 0.000000000000e+000 3.860843529846e+005 3.785246093705e+005 3.614064007990e+005 3.163239673326e+005 3.218183541962e+005 0.000000000000e+000 3.333700384853e+005 2.982515371367e+005 3.652971366078e+005 3.068420780864e+005 3.698284684311e+005 1.907365227138e+005 1.507071322559e+005 8.787394904069e+004 3.336092082572e+005 3.455561742249e+005 7.584156877429e+004 0.000000000000e+000 1.447887592462e+005 1.121040669611e+004 1.869943810560e+005 3.486112277638e+005 3.354173244054e+005 3.512136008317e+005 2.936576175926e+005 2.596507031249e+005 2.759386582986e+005 2.390665654537e+005 0.000000000000e+000 0.000000000000e+000 3.520181518385e+005 2.278496158313e+005 2.942416530157e+005 2.793349381677e+005 2.599468796357e+005 2.436442761565e+005 2.283036841183e+005 2.208848131911e+005 2.453086390802e+005 2.824288609947e+005 2.659946837163e+005 2.986468944464e+005 0.000000000000e+000 0.000000000000e+000 1.032613014395e+005 1.941759907920e+005 1.581785397259e+005 3.555294400328e+005 3.448457448516e+005 3.331465987099e+005 3.257936737393e+005 3.617860070983e+005 0.000000000000e+000 3.785184524570e+005 2.284444391276e+005 2.389315882738e+005 2.595501123056e+005 2.783583416654e+005 2.935441799322e+005 1.657369226150e+004 0.000000000000e+000 3.511149328381e+005 7.415625724753e+004 1.446538880963e+005 1.868512122058e+005 3.488045221599e+005 3.354590240811e+005 3.158983580084e+005 0.000000000000e+000 3.187845137307e+005 0.000000000000e+000 2.240384963684e+005 2.207806241103e+005 2.451034425086e+005 2.656772925692e+005 2.821984513469e+005 2.983229943802e+005 0.000000000000e+000 0.000000000000e+000 1.046579853273e+005 1.620140351708e+005 1.937270529846e+005 3.447340541462e+005 1.942944413184e+005 2.823011633770e+005 2.636351794806e+005 2.451579302809e+005 1.583135368008e+005 1.033965325902e+005 3.330829270173e+005 0.000000000000e+000 3.447993202246e+005 0.000000000000e+000 3.555333399855e+005 3.699624413876e+005 0.000000000000e+000 3.551392232453e+005 0.000000000000e+000 2.792582330148e+005 2.442830794345e+005 2.626256457530e+005 2.946982953858e+005 3.447667797379e+005 9.417921656480e+004 3.330760537056e+005 1.540341595976e+005 1.904890817962e+005 2.243010944013e+005 3.784267439220e+005 0.000000000000e+000 3.859444124816e+005 0.000000000000e+000 0.000000000000e+000 0.000000000000e+000 3.189426774864e+005 3.121019138463e+005 3.654455049653e+005 3.554703803803e+005 0.000000000000e+000 3.780345519301e+005 0.000000000000e+000 0.000000000000e+000 3.615592250101e+005 2.055641785072e+005 1.728415541308e+005 3.290974485420e+005 1.268784272569e+005 3.420151835595e+005 2.520923783844e+005 2.693043424967e+005 2.860523999976e+005 2.133197825077e+005 0.000000000000e+000 3.581482230761e+005 0.000000000000e+000 3.265004253003e+005 3.059906013349e+005 3.191982668344e+005 3.741129015148e+005 3.762699800500e+005 0.000000000000e+000 3.825483282309e+005 0.000000000000e+000 3.825482355526e+005 2.981991314097e+005 3.333525332599e+005 3.015025908474e+005 3.719919030184e+005 0.000000000000e+000 3.827495872841e+005 3.221948198292e+005 3.115262588976e+005 3.193010366585e+005 3.654678607337e+005 3.740103663144e+005 3.698102612048e+005 3.295147296155e+005 3.740161646302e+005 3.678093787652e+005 3.190876818421e+005 3.763840494077e+005 3.741991892876e+005 3.157849456838e+005 3.251603086949e+005 3.113478802607e+005 3.219112897694e+005 0.000000000000e+000 3.803152833825e+005 3.580102737259e+005 2.204824254012e+005 2.124308664827e+005 0.000000000000e+000 0.000000000000e+000 0.000000000000e+000 0.000000000000e+000 1.234621610340e+005 1.727855621261e+005 3.420316394807e+005 1.977898501157e+005 2.049555664883e+005 2.990739468335e+005 3.016253509746e+005 2.852940029598e+005 2.896361348603e+005 2.703290509565e+005 2.661861640869e+005 2.485713629765e+005 2.526392275855e+005 3.805758298556e+005 0.000000000000e+000 0.000000000000e+000 0.000000000000e+000 0.000000000000e+000 3.828613507947e+005 0.000000000000e+000 2.395085117964e+005 2.597328345779e+005 2.791362279272e+005 2.934810568193e+005 2.280185772489e+005 2.162623480203e+005 2.021517892082e+005 1.693244719479e+005 3.292794632158e+005 1.178192775061e+005 3.425592382902e+005 0.000000000000e+000 3.519866458579e+005 0.000000000000e+000 0.000000000000e+000 0.000000000000e+000 0.000000000000e+000 1.178408848378e+005 1.69323