<?xml version="1.0"?>
<VTKFile type="UnstructuredGrid" version="0.1" byte_order="LittleEndian">
  <UnstructuredGrid>
    <Piece NumberOfPoints="2604" NumberOfCells="4910">
      <Points>
        <DataArray type="Float64" NumberOfComponents="3" format="ascii">
          0.000000000000e+000 0.000000000000e+000 0.000000000000e+000
          2.000000000000e+002 0.000000000000e+000 0.000000000000e+000
          2.000000000000e+002 2.000000000000e+001 0.000000000000e+000
          0.000000000000e+000 2.000000000000e+001 0.000000000000e+000
          1.492537313427e+000 0.000000000000e+000 0.000000000000e+000
          2.985074626854e+000 0.000000000000e+000 0.000000000000e+000
          4.477611940281e+000 0.000000000000e+000 0.000000000000e+000
          5.970149253708e+000 0.000000000000e+000 0.000000000000e+000
          7.462686567135e+000 0.000000000000e+000 0.000000000000e+000
          8.955223880561e+000 0.000000000000e+000 0.000000000000e+000
          1.044776119399e+001 0.000000000000e+000 0.000000000000e+000
          1.194029850741e+001 0.000000000000e+000 0.000000000000e+000
          1.343283582084e+001 0.000000000000e+000 0.000000000000e+000
          1.492537313427e+001 0.000000000000e+000 0.000000000000e+000
          1.641791044770e+001 0.000000000000e+000 0.000000000000e+000
          1.791044776112e+001 0.000000000000e+000 0.000000000000e+000
          1.940298507455e+001 0.000000000000e+000 0.000000000000e+000
          2.089552238798e+001 0.000000000000e+000 0.000000000000e+000
          2.238805970141e+001 0.000000000000e+000 0.000000000000e+000
          2.388059701484e+001 0.000000000000e+000 0.000000000000e+000
          2.537313432826e+001 0.000000000000e+000 0.000000000000e+000
          2.686567164169e+001 0.000000000000e+000 0.000000000000e+000
          2.835820895511e+001 0.000000000000e+000 0.000000000000e+000
          2.985074626854e+001 0.000000000000e+000 0.000000000000e+000
          3.134328358196e+001 0.000000000000e+000 0.000000000000e+000
          3.283582089539e+001 0.000000000000e+000 0.000000000000e+000
          3.432835820881e+001 0.000000000000e+000 0.000000000000e+000
          3.582089552224e+001 0.000000000000e+000 0.000000000000e+000
          3.731343283566e+001 0.000000000000e+000 0.000000000000e+000
          3.880597014909e+001 0.000000000000e+000 0.000000000000e+000
          4.029850746251e+001 0.000000000000e+000 0.000000000000e+000
          4.179104477594e+001 0.000000000000e+000 0.000000000000e+000
          4.328358208936e+001 0.000000000000e+000 0.000000000000e+000
          4.477611940279e+001 0.000000000000e+000 0.000000000000e+000
          4.626865671621e+001 0.000000000000e+000 0.000000000000e+000
          4.776119402964e+001 0.000000000000e+000 0.000000000000e+000
          4.925373134306e+001 0.000000000000e+000 0.000000000000e+000
          5.074626865649e+001 0.000000000000e+000 0.000000000000e+000
          5.223880596991e+001 0.000000000000e+000 0.000000000000e+000
          5.373134328334e+001 0.000000000000e+000 0.000000000000e+000
          5.522388059676e+001 0.000000000000e+000 0.000000000000e+000
          5.671641791019e+001 0.000000000000e+000 0.000000000000e+000
          5.820895522361e+001 0.000000000000e+000 0.000000000000e+000
          5.970149253704e+001 0.000000000000e+000 0.000000000000e+000
          6.119402985046e+001 0.000000000000e+000 0.000000000000e+000
          6.268656716389e+001 0.000000000000e+000 0.000000000000e+000
          6.417910447732e+001 0.000000000000e+000 0.000000000000e+000
          6.567164179075e+001 0.000000000000e+000 0.000000000000e+000
          6.716417910418e+001 0.000000000000e+000 0.000000000000e+000
          6.865671641761e+001 0.000000000000e+000 0.000000000000e+000
          7.014925373104e+001 0.000000000000e+000 0.000000000000e+000
          7.164179104447e+001 0.000000000000e+000 0.000000000000e+000
          7.313432835790e+001 0.000000000000e+000 0.000000000000e+000
          7.462686567133e+001 0.000000000000e+000 0.000000000000e+000
          7.611940298476e+001 0.000000000000e+000 0.000000000000e+000
          7.761194029819e+001 0.000000000000e+000 0.000000000000e+000
          7.910447761162e+001 0.000000000000e+000 0.000000000000e+000
          8.059701492505e+001 0.000000000000e+000 0.000000000000e+000
          8.208955223848e+001 0.000000000000e+000 0.000000000000e+000
          8.358208955191e+001 0.000000000000e+000 0.000000000000e+000
          8.507462686534e+001 0.000000000000e+000 0.000000000000e+000
          8.656716417877e+001 0.000000000000e+000 0.000000000000e+000
          8.805970149220e+001 0.000000000000e+000 0.000000000000e+000
          8.955223880563e+001 0.000000000000e+000 0.000000000000e+000
          9.104477611907e+001 0.000000000000e+000 0.000000000000e+000
          9.253731343250e+001 0.000000000000e+000 0.000000000000e+000
          9.402985074593e+001 0.000000000000e+000 0.000000000000e+000
          9.552238805936e+001 0.000000000000e+000 0.000000000000e+000
          9.701492537279e+001 0.000000000000e+000 0.000000000000e+000
          9.850746268622e+001 0.000000000000e+000 0.000000000000e+000
          9.999999999965e+001 0.000000000000e+000 0.000000000000e+000
          1.014925373131e+002 0.000000000000e+000 0.000000000000e+000
          1.029850746265e+002 0.000000000000e+000 0.000000000000e+000
          1.044776119399e+002 0.000000000000e+000 0.000000000000e+000
          1.059701492534e+002 0.000000000000e+000 0.000000000000e+000
          1.074626865668e+002 0.000000000000e+000 0.000000000000e+000
          1.089552238802e+002 0.000000000000e+000 0.000000000000e+000
          1.104477611937e+002 0.000000000000e+000 0.000000000000e+000
          1.119402985071e+002 0.000000000000e+000 0.000000000000e+000
          1.134328358205e+002 0.000000000000e+000 0.000000000000e+000
          1.149253731340e+002 0.000000000000e+000 0.000000000000e+000
          1.164179104474e+002 0.000000000000e+000 0.000000000000e+000
          1.179104477608e+002 0.000000000000e+000 0.000000000000e+000
          1.194029850742e+002 0.000000000000e+000 0.000000000000e+000
          1.208955223877e+002 0.000000000000e+000 0.000000000000e+000
          1.223880597011e+002 0.000000000000e+000 0.000000000000e+000
          1.238805970145e+002 0.000000000000e+000 0.000000000000e+000
          1.253731343280e+002 0.000000000000e+000 0.000000000000e+000
          1.268656716414e+002 0.000000000000e+000 0.000000000000e+000
          1.283582089548e+002 0.000000000000e+000 0.000000000000e+000
          1.298507462683e+002 0.000000000000e+000 0.000000000000e+000
          1.313432835817e+002 0.000000000000e+000 0.000000000000e+000
          1.328358208952e+002 0.000000000000e+000 0.000000000000e+000
          1.343283582086e+002 0.000000000000e+000 0.000000000000e+000
          1.358208955220e+002 0.000000000000e+000 0.000000000000e+000
          1.373134328355e+002 0.000000000000e+000 0.000000000000e+000
          1.388059701489e+002 0.000000000000e+000 0.000000000000e+000
          1.402985074624e+002 0.000000000000e+000 0.000000000000e+000
          1.417910447758e+002 0.000000000000e+000 0.000000000000e+000
          1.432835820892e+002 0.000000000000e+000 0.000000000000e+000
          1.447761194027e+002 0.000000000000e+000 0.000000000000e+000
          1.462686567161e+002 0.000000000000e+000 0.000000000000e+000
          1.477611940296e+002 0.000000000000e+000 0.000000000000e+000
          1.492537313430e+002 0.000000000000e+000 0.000000000000e+000
          1.507462686564e+002 0.000000000000e+000 0.000000000000e+000
          1.522388059699e+002 0.000000000000e+000 0.000000000000e+000
          1.537313432833e+002 0.000000000000e+000 0.000000000000e+000
          1.552238805968e+002 0.000000000000e+000 0.000000000000e+000
          1.567164179102e+002 0.000000000000e+000 0.000000000000e+000
          1.582089552237e+002 0.000000000000e+000 0.000000000000e+000
          1.597014925371e+002 0.000000000000e+000 0.000000000000e+000
          1.611940298505e+002 0.000000000000e+000 0.000000000000e+000
          1.626865671640e+002 0.000000000000e+000 0.000000000000e+000
          1.641791044774e+002 0.000000000000e+000 0.000000000000e+000
          1.656716417909e+002 0.000000000000e+000 0.000000000000e+000
          1.671641791043e+002 0.000000000000e+000 0.000000000000e+000
          1.686567164177e+002 0.000000000000e+000 0.000000000000e+000
          1.701492537312e+002 0.000000000000e+000 0.000000000000e+000
          1.716417910446e+002 0.000000000000e+000 0.000000000000e+000
          1.731343283581e+002 0.000000000000e+000 0.000000000000e+000
          1.746268656715e+002 0.000000000000e+000 0.000000000000e+000
          1.761194029849e+002 0.000000000000e+000 0.000000000000e+000
          1.776119402984e+002 0.000000000000e+000 0.000000000000e+000
          1.791044776118e+002 0.000000000000e+000 0.000000000000e+000
          1.805970149253e+002 0.000000000000e+000 0.000000000000e+000
          1.820895522387e+002 0.000000000000e+000 0.000000000000e+000
          1.835820895521e+002 0.000000000000e+000 0.000000000000e+000
          1.850746268656e+002 0.000000000000e+000 0.000000000000e+000
          1.865671641790e+002 0.000000000000e+000 0.000000000000e+000
          1.880597014925e+002 0.000000000000e+000 0.000000000000e+000
          1.895522388059e+002 0.000000000000e+000 0.000000000000e+000
          1.910447761194e+002 0.000000000000e+000 0.000000000000e+000
          1.925373134328e+002 0.000000000000e+000 0.000000000000e+000
          1.940298507462e+002 0.000000000000e+000 0.000000000000e+000
          1.955223880597e+002 0.000000000000e+000 0.000000000000e+000
          1.970149253731e+002 0.000000000000e+000 0.000000000000e+000
          1.985074626866e+002 0.000000000000e+000 0.000000000000e+000
          2.000000000000e+002 1.428571428570e+000 0.000000000000e+000
          2.000000000000e+002 2.857142857140e+000 0.000000000000e+000
[...]
      <PointData Scalars="Capillary_Pressure">
        <DataArray type="Float64" Name="Capillary_Pressure" format="ascii">
          3.858107236692e+005 0.000000000000e+000 0.000000000000e+000 3.858129994371e+005 3.860379572051e+005 3.833074247332e+005 3.824452479138e+005 3.805146149302e+005 3.802417213353e+005 3.783475614779e+005 3.763201873398e+005 3.762442058511e+005 3.740762399669e+005 3.739083936280e+005 3.720279977853e+005 3.696576709422e+005 3.697023649387e+005 3.676846035011e+005 3.672752726138e+005 3.651710723440e+005 3.617768619895e+005 3.615705844917e+005 3.610045796722e+005 3.579995044269e+005 3.576630922756e+005 3.554770879702e+005 3.548511407183e+005 3.517098566598e+005 3.512080232319e+005 3.491420875342e+005 3.485029317785e+005 3.453025999157e+005 3.447765672293e+005 3.427978343518e+005 3.420598167226e+005 3.384596364044e+005 3.383726612239e+005 3.357627430225e+005 3.333719637007e+005 3.330838420237e+005 3.322859885464e+005 3.291280356241e+005 3.264509684179e+005 3.260809708841e+005 3.224145847529e+005 3.219464570294e+005 3.191174561101e+005 3.186239794117e+005 3.161830901025e+005 3.152740040678e+005 3.111849866170e+005 3.109940413105e+005 3.071357973692e+005 3.065750952305e+005 3.026123114602e+005 3.012419308062e+005 2.990558793561e+005 2.985874007500e+005 2.974571252565e+005 2.936635765926e+005 2.904408807469e+005 2.900653153115e+005 2.860123102691e+005 2.853124437639e+005 2.823840289697e+005 2.790036616832e+005 2.759911331827e+005 2.753681773432e+005 2.708180566228e+005 2.692118256298e+005 2.665993778670e+005 2.634442964544e+005 2.625805842808e+005 2.597016594584e+005 2.559642059259e+005 2.526346264972e+005 2.520832697022e+005 2.485360073781e+005 2.452903170976e+005 2.439732934287e+005 2.382650703608e+005 2.348865958398e+005 2.317406422441e+005 2.281345157880e+005 2.245968909045e+005 2.208657793445e+005 2.201337940678e+005 2.166187037631e+005 2.127276283902e+005 2.091859298294e+005 2.019642829591e+005 1.980909039842e+005 1.941577417137e+005 1.897987558238e+005 1.871533482753e+005 1.795790351378e+005 1.750539610646e+005 1.725649960579e+005 1.644104418226e+005 1.581796274905e+005 1.551017738465e+005 1.449675417690e+005 1.384276904094e+005 1.313420160461e+005 1.225691580641e+005 1.133492540062e+005 1.032755789751e+005 9.106694652504e+004 7.759975029399e+004 6.078030936438e+004 3.888821608819e+004 7.494698746337e+003 0.000000000000e+000 0.000000000000e+000 0.000000000000e+000 0.000000000000e+000 0.000000000000e+000 0.000000000000e+000 0.000000000000e+000 0.000000000000e+000 0.000000000000e+000 0.000000000000e+000 0.000000000000e+000 0.000000000000e+000 0.000000000000e+000 0.000000000000e+000 0.000000000000e+000 0.000000000000e+000 0.000000000000e+000 0.000000000000e+000 0.000000000000e+000 0.000000000000e+000 0.000000000000e+000 0.000000000000e+000 0.000000000000e+000 0.000000000000e+000 0.000000000000e+000 0.000000000000e+000 0.000000000000e+000 0.000000000000e+000 0.000000000000e+000 0.000000000000e+000 0.000000000000e+000 0.000000000000e+000 0.000000000000e+000 0.000000000000e+000 0.000000000000e+000 0.000000000000e+000 0.000000000000e+000 0.000000000000e+000 0.000000000000e+000 0.000000000000e+000 0.000000000000e+000 0.000000000000e+000 0.000000000000e+000 0.000000000000e+000 0.000000000000e+000 0.000000000000e+000 0.000000000000e+000 0.000000000000e+000 0.000000000000e+000 0.000000000000e+000 0.000000000000e+000 0.000000000000e+000 0.000000000000e+000 0.000000000000e+000 0.000000000000e+000 0.000000000000e+000 0.000000000000e+000 0.000000000000e+000 0.000000000000e+000 0.000000000000e+000 0.000000000000e+000 0.000000000000e+000 0.000000000000e+000 7.490112189523e+003 3.887682101358e+004 6.075170833946e+004 7.759051950285e+004 9.105222437326e+004 1.032787647626e+005 1.133703639744e+005 1.225574075384e+005 1.313397584331e+005 1.384212057198e+005 1.449606944748e+005 1.550979945941e+005 1.581716447079e+005 1.643940350774e+005 1.725578601590e+005 1.750511126626e+005 1.795821287285e+005 1.871451878114e+005 1.897939346800e+005 1.941480708203e+005 1.980711170141e+005 2.019432127279e+005 2.091801067008e+005 2.127320015407e+005 2.166211689224e+005 2.201334230553e+005 2.208622203236e+005 2.246064859816e+005 2.281437956986e+005 2.317314393155e+005 2.348898176792e+005 2.382469151984e+005 2.439623240240e+005 2.452737202094e+005 2.485396054326e+005 2.520689505356e+005 2.526216857967e+005 2.559506629218e+005 2.596907628964e+005 2.625947787575e+005 2.659422878444e+005 2.665980917838e+005 2.691944465535e+005 2.707959909533e+005 2.753810944808e+005 2.785620362659e+005 2.789896234847e+005 2.823195756371e+005 2.853140323470e+005 2.860145307150e+005 2.900672507609e+005 2.904477514128e+005 2.936928455283e+005 2.974532041028e+005 2.985929675897e+005 2.990698018222e+005 3.012664172232e+005 3.056099921254e+005 3.065964442129e+005 3.071367852763e+005 3.109981495801e+005 3.112258893853e+005 3.152551055253e+005 3.161541694082e+005 3.186096502661e+005 3.190944240513e+005 3.219294520710e+005 3.251896470442e+005 3.260798001089e+005 3.264401027049e+005 3.291207935220e+005 3.322899002361e+005 3.330859530441e+005 3.333644562002e+005 3.357649519460e+005 3.383733793047e+005 3.384580531213e+005 3.420563424939e+005 3.427941181417e+005 3.447739288643e+005 3.453056509841e+005 3.485007865985e+005 3.491411343305e+005 3.512070957719e+005 3.517040554731e+005 3.548521984301e+005 3.554714774099e+005 3.576635380674e+005 3.580033545912e+005 3.610040966740e+005 3.615744035401e+005 3.617855471178e+005 3.651614295617e+005 3.672725216921e+005 3.676860485284e+005 3.697101514354e+005 3.696517036977e+005 3.720151698640e+005 3.720731474022e+005 3.740937801916e+005 3.762399637174e+005 3.763147793424e+005 3.783537980101e+005 3.802481890206e+005 3.805282675128e+005 3.824043894476e+005 3.833093659571e+005 3.860374682044e+005 3.858121378335e+005 3.858096782460e+005 3.858133760410e+005 3.858120364376e+005 3.858101172978e+005 3.858107989987e+005 3.858109336870e+005 3.858096336767e+005 3.858102895207e+005 3.858115874955e+005 3.858118147847e+005 3.858089186181e+005 3.858099127156e+005 0.000000000000e+000 3.783296473460e+005 0.000000000000e+000 0.000000000000e+000 5.190211276321e+004 1.352691582740e+005 1.796092768304e+005 3.613635641395e+005 2.088077111387e+005 3.491761941614e+005 3.386403290110e+005 3.263453183711e+005 3.062277843026e+005 2.906783513553e+005 2.748423140032e+005 2.555830307559e+005 2.352273352104e+005 3.698993333292e+005 3.161720499266e+005 2.208487017537e+005 2.238678412088e+005 2.452698224715e+005 2.659447381483e+005 2.823053204570e+005 2.985937423892e+005 0.000000000000e+000 0.000000000000e+000 1.020681990546e+005 2.985902468427e+005 2.824894601449e+005 2.657948375050e+005 2.449090608996e+005 1.579870610765e+005 1.941472111664e+005 3.554861926362e+005 3.448503987737e+005 3.330137448864e+005 1.940848293042e+005 1.581550070482e+005 1.032580814259e+005 0.000000000000e+000 0.000000000000e+000 3.331128893477e+005 3.447784281676e+005 3.554633691012e+005 0.000000000000e+000 0.000000000000e+000 3.192138625917e+005 3.115466948860e+005 3.739067623785e+005 3.651614623469e+005 0.000000000000e+000 3.805227351018e+005 0.000000000000e+000 3.805303723147e+005 3.736647403539e+005 3.652084992018e+005 3.220774305629e+005 3.107562580301e+005 0.000000000000e+000 2.352168339942e+005 0.000000000000e+000 2.555770268853e+005 2.748332561467e+005 2.906636762860e+005 3.058519033106e+005 2.088581837989e+005 5.024877970015e+004 1.343777180077e+005 1.795661164013e+005 3.492149873945e+005 3.387092021608e+005 2.097922494669e+005 1.797226403037e+005 1.351910005777e+005 5.081129440750e+004 2.906780998840e+005 2.748283675865e+005 2.555993518865e+005 0.000000000000e+000 2.352065520944e+005 0.000000000000e+000 3.264131756272e+005 3.386650041118e+005 3.492084611603e+005 3.613656379746e+005 0.000000000000e+000 0.000000000000e+000 3.763131550814e+005 3.609925050727e+005 3.024313194320e+005 3.286128358879e+005 0.000000000000e+000 3.824587135917e+005 3.698850755771e+005 3.782937948370e+005 3.699012139382e+005 3.162237521759e+005 3.216863584541e+005 3.112443476983e+005 3.740866747556e+005 3.651285047416e+005 3.161441038401e+005 0.000000000000e+000 9.303128313987e+004 0.000000000000e+000 1.552149308832e+005 0.000000000000e+000 1.902233500172e+005 2.441761022301e+005 2.791640373724e+005 2.946089592152e+005 2.626972259507e+005 3.548685378442e+005 3.333099222532e+005 3.448152236335e+005 2.244776056503e+005 3.161763215759e+005 0.000000000000e+000 3.832966533420e+005 0.000000000000e+000 3.832917224508e+005 2.396466086829e+005 2.598322864038e+005 2.792031047375e+005 2.941187448656e+005 2.019808389803e+005 2.279754467134e+005 2.166854623835e+005 1.690752715569e+005 3.293194358172e+005 1.169140957625e+005 3.425816920417e+005 0.000000000000e+000 3.519960222484e+005 0.000000000000e+000 0.000000000000e+000 0.000000000000e+000 0.000000000000e+000 0.000000000000e+000 1.177239434927e+005 8.690714643881e+004 1.692164091649e+005 1.517952207531e+005 3.519333655708e+005 1.906550599217e+005 2.019994022991e+005 3.425345091842e+005 3.454949962627e+005 2.941058109762e+005 2.791807082786e+005 2.597517848469e+005 2.856410623878e+005 2.669471252999e+005 2.435798454002e+005 2.481938103644e+005 3.334139465541e+005 2.166679047983e+005 2.277179201874e+005 0.000000000000e+000 3.578328240978e+005 0.000000000000e+000 3.454216392425e+005 8.892261168577e+004 3.334970049425e+005 1.511991656420e+005 3.014656805868e+005 2.857722853592e+005 2.670841200052e+005 2.513623640308e+005 1.908079634168e+005 3.698803375564e+005 0.000000000000e+000 0.000000000000e+000 3.105977592212e+005 3.246365458230e+005 3.649766593402e+005 2.167833272203e+005 2.669296472779e+005 2.481421943463e+005 2.855968100254e+005 3.014461556326e+005 3.578034849323e+005 3.426338548213e+005 0.000000000000e+000 3.293524980713e+005 0.000000000000e+000 1.183640271087e+005 2.018620733219e+005 1.653041638180e+005 3.576699132008e+005 0.000000000000e+000 0.000000000000e+000 3.147610019346e+005 3.740783420142e+005 0.000000000000e+000 2.164786275506e+005 2.053520985529e+005 1.726737162693e+005 3.289383043422e+005 1.233322030857e+005 3.420150056925e+005 2.860795635453e+005 2.692525526105e+005 2.521470655872e+005 0.000000000000e+000 3.579988326707e+005 0.000000000000e+000 3.674627045404e+005 3.016869280544e+005 0.000000000000e+000 0.000000000000e+000 0.000000000000e+000 2.989466143754e+005 3.323769204577e+005 3.070637900566e+005 3.253338931715e+005 3.802557403152e+005 3.617422323824e+005 3.762087332946e+005 3.719464769373e+005 3.617367365451e+005 2.382808749754e+005 2.597063905237e+005 2.785900755137e+005 2.937056286337e+005 5.609550970291e+003 3.517133877605e+005 0.000000000000e+000 2.281978208953e+005 1.871676730607e+005 8.948254966480e+003 1.448549217931e+005 0.000000000000e+000 7.753793018789e+004 2.388340143803e+005 2.597223841548e+005 2.785266049635e+005 2.936505121003e+005 3.516484903815e+005 3.357374692436e+005 3.485151901428e+005 3.485144388492e+005 7.672570516545e+004 3.353177681268e+005 1.448705684442e+005 1.870822498104e+005 2.281744237053e+005 0.000000000000e+000 0.000000000000e+000 3.832940368291e+005 3.833002581878e+005 0.000000000000e+000 3.798154080631e+005 0.000000000000e+000 0.000000000000e+000 3.783945903671e+005 0.000000000000e+000 3.762260154425e+005 3.798271301640e+005 3.255206631665e+005 3.064738393215e+005 3.611814135750e+005 3.761335245989e+005 3.261317723023e+005 3.675728970684e+005 3.677148065127e+005 3.064861687427e+005 3.718433063833e+005 3.216325252550e+005 3.148965458071e+005 3.720041659354e+005 3.423379938033e+005 2.015504579858e+005 1.684953405769e+005 1.205252504471e+005 0.000000000000e+000 0.000000000000e+000 2.169171500856e+005 3.017139600204e+005 2.854592524168e+005 2.697219722597e+005 2.518017370647e+005 3.190206639067e+005 3.676510976473e+005 3.117988836658e+005 3.185971156690e+005 0.000000000000e+000 0.000000000000e+000 3.575519602716e+005 3.317492975642e+005 3.784250309500e+005 3.804803604937e+005 0.000000000000e+000 3.719002534837e+005 2.353442746153e+005 2.585782058837e+005 2.754330726971e+005 2.904847561320e+005 2.092033866855e+005 2.096021570498e+005 2.316660938554e+005 1.749926800172e+005 1.326874603508e+005 3.264699835531e+005 3.733530979071e+004 3.388189188195e+005 0.000000000000e+000 3.512280818141e+005 0.000000000000e+000 0.000000000000e+000 3.696462139584e+004 1.326227528941e+005 1.761245518158e+005 3.512440107715e+005 3.388284869249e+005 2.904577678886e+005 2.754441188430e+005 2.585885884669e+005 0.000000000000e+000 3.609854187781e+005 3.025320009264e+005 0.000000000000e+000 0.000000000000e+000 0.000000000000e+000 3.582023960128e+005 3.618401401724e+005 3.762119253464e+005 3.151897233560e+005 0.000000000000e+000 0.000000000000e+000 1.083280023198e+005 1.616103290951e+005 1.983315073890e+005 3.555501622509e+005 3.427256693860e+005 3.326449953212e+005 2.453180565925e+005 2.825009537447e+005 2.990166905366e+005 2.665614808965e+005 2.205137429394e+005 0.000000000000e+000 0.000000000000e+000 0.000000000000e+000 0.000000000000e+000 1.356977572107e+005 1.794555420272e+005 3.387359324757e+005 2.905109009993e+005 2.745257592948e+005 2.553779681244e+005 3.826794448035e+005 3.186658318662e+005 2.095358168025e+005 2.092235615829e+005 3.058694725977e+005 0.000000000000e+000 3.858795993498e+005 3.289491997755e+005 3.014386048427e+005 1.942018147644e+005 1.582343028178e+005 1.033131949004e+005 0.000000000000e+000 0.000000000000e+000 3.330589687157e+005 3.447604198338e+005 3.554746512523e+005 2.659437453253e+005 2.452771252624e+005 2.985926058248e+005 2.823816604467e+005 0.000000000000e+000 0.000000000000e+000 2.823820565070e+005 2.659272809295e+005 1.032631969286e+005 2.452799724471e+005 1.581852200056e+005 1.941237805819e+005 3.447845637422e+005 2.208166946201e+005 2.208747484306e+005 3.674396025635e+005 3.225307718596e+005 3.696592159419e+005 2.994106332333e+005 3.159799932731e+005 0.000000000000e+000 0.000000000000e+000 3.110093959975e+005 3.075208333453e+005 3.156101273179e+005 2.049857466284e+005 2.358229698001e+005 2.317796358893e+005 2.123265087567e+005 2.519036601741e+005 2.703778923514e+005 2.896530021315e+005 1.823820434034e+005 3.489361729076e+005 3.380383930749e+005 0.000000000000e+000 6.861790167790e+004 1.415604261696e+005 0.000000000000e+000 3.489338272520e+005 6.867824207569e+004 3.380354611274e+005 2.896539193913e+005 2.703577570865e+005 2.522869033048e+005 1.415661241839e+005 1.823868117813e+005 3.827746750031e+005 3.760878844248e+005 0.000000000000e+000 3.827672764684e+005 2.351775126516e+005 2.352710466775e+005 3.492194637258e+005 3.492237112111e+005 4.977742408676e+004 5.025484992564e+004 0.000000000000e+000 3.718037096200e+005 3.783265414721e+005 3.609684488695e+005 3.699117459770e+005 0.000000000000e+000 3.858830778149e+005 0.000000000000e+000 3.858809244337e+005 3.739265415572e+005 0.000000000000e+000 0.000000000000e+000 1.797553013824e+005 1.352165105934e+005 3.386600574573e+005 2.554686845480e+005 2.907167078996e+005 2.748825384879e+005 0.000000000000e+000 3.652664681700e+005 3.652245646848e+005 3.762272985336e+005 3.068607227349e+005 3.256791955243e+005 3.762471754957e+005 3.615828309689e+005 3.553721620418e+005 3.217793990851e+005 3.647167680270e+005 0.000000000000e+000 0.000000000000e+000 3.247093750281e+005 3.072701074521e+005 0.000000000000e+000 3.265809209232e+005 3.071299213049e+005 3.110848994769e+005 0.000000000000e+000 3.578288419154e+005 0.000000000000e+000 2.860763143540e+005 2.692678907834e+005 2.521415347222e+005 2.132705960474e+005 3.425609946485e+005 1.169824935507e+005 3.316773306211e+005 1.691335402028e+005 2.054602639203e+005 0.000000000000e+000 3.677028741345e+005 3.118870162954e+005 3.184595199927e+005 3.264278248623e+005 3.720380141757e+005 0.000000000000e+000 3.858845790878e+005 0.000000000000e+000 3.860244073991e+005 3.784630516571e+005 3.613444687303e+005 3.162684889353e+005 3.217630768384e+005 0.000000000000e+000 3.333106072148e+005 2.982008564884e+005 3.652352499494e+005 3.067891480986e+005 3.697693882926e+005 1.907063570929e+005 1.506756315372e+005 8.782907961782e+004 3.335491404475e+005 3.454947577480e+005 7.579102218107e+004 0.000000000000e+000 1.447565567283e+005 1.110849188738e+004 1.869632793592e+005 3.485505997024e+005 3.353562482825e+005 3.511515016497e+005 2.936082857970e+005 2.596105571439e+005 2.758928723328e+005 2.390275202619e+005 0.000000000000e+000 0.000000000000e+000 3.519562821546e+005 2.278143400003e+005 2.941922022377e+005 2.792871193685e+005 2.599007165761e+005 2.436062644895e+005 2.282665565078e+005 2.208500477830e+005 2.452697267303e+005 2.823822131341e+005 2.659542630498e+005 2.985961241644e+005 0.000000000000e+000 0.000000000000e+000 1.032218891256e+005 1.941441077722e+005 1.581481094818e+005 3.554675130710e+005 3.447842663611e+005 3.330874503615e+005 3.257364618553e+005 3.617241043375e+005 0.000000000000e+000 3.784568130057e+005 2.284081531967e+005 2.388934018286e+005 2.595098890216e+005 2.783122931658e+005 2.934951176465e+005 1.647498759274e+004 0.000000000000e+000 3.510530484134e+005 7.410475968506e+004 1.446221268067e+005 1.868175617431e+005 3.487435568304e+005 3.353993498400e+005 3.158401677827e+005 0.000000000000e+000 3.187300665243e+005 0.000000000000e+000 2.240036255806e+005 2.207461967706e+005 2.450654612430e+005 2.656302568391e+005 2.821485710899e+005 2.982737749028e+005 0.000000000000e+000 0.000000000000e+000 1.046189708921e+005 1.619835974250e+005 1.936958237290e+005 3.446732908039e+005 1.942647773552e+005 2.822545579925e+005 2.635893508859e+005 2.451187915588e+005 1.582824975977e+005 1.033571075927e+005 3.330243563087e+005 0.000000000000e+000 3.447383455600e+005 0.000000000000e+000 3.554715815229e+005 3.698998635324e+005 0.000000000000e+000 3.550775166323e+005 0.000000000000e+000 2.792148387398e+005 2.442421508768e+005 2.625831874100e+005 2.946472736215e+005 3.447064108879e+005 9.413658831811e+004 3.330156225254e+005 1.540029141559e+005 1.904553445561e+005 2.242649470195e+005 3.783652439712e+005 0.000000000000e+000 3.858844657569e+005 0.000000000000e+000 0.000000000000e+000 0.000000000000e+000 3.188885058558e+005 3.120466938660e+005 3.653831620569e+005 3.554086590867e+005 0.000000000000e+000 3.779729544841e+005 0.000000000000e+000 0.000000000000e+000 3.614968985649e+005 2.055315708694e+005 1.728105572525e+005 3.290392903731e+005 1.268448548419e+005 3.419553196056e+005 2.520519964304e+005 2.692593668725e+005 2.860050907556e+005 2.132863136604e+005 0.000000000000e+000 3.580860880504e+005 0.000000000000e+000 3.264430655433e+005 3.059381567342e+005 3.191415752068e+005 3.740503295447e+005 3.762083669883e+005 0.000000000000e+000 3.824874991490e+005 0.000000000000e+000 3.824876369556e+005 2.981495057129e+005 3.332934114436e+005 3.014500887014e+005 3.719305281291e+005 0.000000000000e+000 3.826886347266e+005 3.221380540798e+005 3.114725357550e+005 3.192443686664e+005 3.654057095634e+005 3.739480328688e+005 3.697471727566e+005 3.294562647465e+005 3.739539330433e+005 3.677472989412e+005 3.190343851635e+005 3.763223312582e+005 3.741367004426e+005 3.157292912984e+005 3.251049058086e+005 3.112941459963e+005 3.218546480998e+005 0.000000000000e+000 3.802540450982e+005 3.579484372473e+005 2.204486170237e+005 2.123959732985e+005 0.000000000000e+000 0.000000000000e+000 0.000000000000e+000 0.000000000000e+000 1.234275684878e+005 1.727549883430e+005 3.419717577334e+005 1.977569910455e+005 2.049224687186e+005 2.990228906272e+005 3.015733189280e+005 2.852433959032e+005 2.895879733135e+005 2.702835510404e+005 2.661406267553e+005 2.485325867179e+005 2.525987950341e+005 3.805147434229e+005 0.000000000000e+000 0.000000000000e+000 0.000000000000e+000 0.000000000000e+000 3.828005608926e+005 0.000000000000e+000 2.394694098077e+005 2.596899312551e+005 2.790896497678e+005 2.934300846314e+005 2.279829184231e+005 2.162286695291e+005 2.021200821599e+005 1.692939582975e+005 3.292214520527e+005 1.177835399539e+005 3.424989159406e+005 0.000000000000e+000 3.519246872641e+005 0.000000000000e+000 0.000000000000e+000 0.000000000000e+000 0.000000000000e+000 1.178051452084e+005 1.69292