<?xml version="1.0"?>
<VTKFile type="UnstructuredGrid" version="0.1" byte_order="LittleEndian">
  <UnstructuredGrid>
    <Piece NumberOfPoints="2604" NumberOfCells="4910">
      <Points>
        <DataArray type="Float64" NumberOfComponents="3" format="ascii">
          0.000000000000e+000 0.000000000000e+000 0.000000000000e+000
          2.000000000000e+002 0.000000000000e+000 0.000000000000e+000
          2.000000000000e+002 2.000000000000e+001 0.000000000000e+000
          0.000000000000e+000 2.000000000000e+001 0.000000000000e+000
          1.492537313427e+000 0.000000000000e+000 0.000000000000e+000
          2.985074626854e+000 0.000000000000e+000 0.000000000000e+000
          4.477611940281e+000 0.000000000000e+000 0.000000000000e+000
          5.970149253708e+000 0.000000000000e+000 0.000000000000e+000
          7.462686567135e+000 0.000000000000e+000 0.000000000000e+000
          8.955223880561e+000 0.000000000000e+000 0.000000000000e+000
          1.044776119399e+001 0.000000000000e+000 0.000000000000e+000
          1.194029850741e+001 0.000000000000e+000 0.000000000000e+000
          1.343283582084e+001 0.000000000000e+000 0.000000000000e+000
          1.492537313427e+001 0.000000000000e+000 0.000000000000e+000
          1.641791044770e+001 0.000000000000e+000 0.000000000000e+000
          1.791044776112e+001 0.000000000000e+000 0.000000000000e+000
          1.940298507455e+001 0.000000000000e+000 0.000000000000e+000
          2.089552238798e+001 0.000000000000e+000 0.000000000000e+000
          2.238805970141e+001 0.000000000000e+000 0.000000000000e+000
          2.388059701484e+001 0.000000000000e+000 0.000000000000e+000
          2.537313432826e+001 0.000000000000e+000 0.000000000000e+000
          2.686567164169e+001 0.000000000000e+000 0.000000000000e+000
          2.835820895511e+001 0.000000000000e+000 0.000000000000e+000
          2.985074626854e+001 0.000000000000e+000 0.000000000000e+000
          3.134328358196e+001 0.000000000000e+000 0.000000000000e+000
          3.283582089539e+001 0.000000000000e+000 0.000000000000e+000
          3.432835820881e+001 0.000000000000e+000 0.000000000000e+000
          3.582089552224e+001 0.000000000000e+000 0.000000000000e+000
          3.731343283566e+001 0.000000000000e+000 0.000000000000e+000
          3.880597014909e+001 0.000000000000e+000 0.000000000000e+000
          4.029850746251e+001 0.000000000000e+000 0.000000000000e+000
          4.179104477594e+001 0.000000000000e+000 0.000000000000e+000
          4.328358208936e+001 0.000000000000e+000 0.000000000000e+000
          4.477611940279e+001 0.000000000000e+000 0.000000000000e+000
          4.626865671621e+001 0.000000000000e+000 0.000000000000e+000
          4.776119402964e+001 0.000000000000e+000 0.000000000000e+000
          4.925373134306e+001 0.000000000000e+000 0.000000000000e+000
          5.074626865649e+001 0.000000000000e+000 0.000000000000e+000
          5.223880596991e+001 0.000000000000e+000 0.000000000000e+000
          5.373134328334e+001 0.000000000000e+000 0.000000000000e+000
          5.522388059676e+001 0.000000000000e+000 0.000000000000e+000
          5.671641791019e+001 0.000000000000e+000 0.000000000000e+000
          5.820895522361e+001 0.000000000000e+000 0.000000000000e+000
          5.970149253704e+001 0.000000000000e+000 0.000000000000e+000
          6.119402985046e+001 0.000000000000e+000 0.000000000000e+000
          6.268656716389e+001 0.000000000000e+000 0.000000000000e+000
          6.417910447732e+001 0.000000000000e+000 0.000000000000e+000
          6.567164179075e+001 0.000000000000e+000 0.000000000000e+000
          6.716417910418e+001 0.000000000000e+000 0.000000000000e+000
          6.865671641761e+001 0.000000000000e+000 0.000000000000e+000
          7.014925373104e+001 0.000000000000e+000 0.000000000000e+000
          7.164179104447e+001 0.000000000000e+000 0.000000000000e+000
          7.313432835790e+001 0.000000000000e+000 0.000000000000e+000
          7.462686567133e+001 0.000000000000e+000 0.000000000000e+000
          7.611940298476e+001 0.000000000000e+000 0.000000000000e+000
          7.761194029819e+001 0.000000000000e+000 0.000000000000e+000
          7.910447761162e+001 0.000000000000e+000 0.000000000000e+000
          8.059701492505e+001 0.000000000000e+000 0.000000000000e+000
          8.208955223848e+001 0.000000000000e+000 0.000000000000e+000
          8.358208955191e+001 0.000000000000e+000 0.000000000000e+000
          8.507462686534e+001 0.000000000000e+000 0.000000000000e+000
          8.656716417877e+001 0.000000000000e+000 0.000000000000e+000
          8.805970149220e+001 0.000000000000e+000 0.000000000000e+000
          8.955223880563e+001 0.000000000000e+000 0.000000000000e+000
          9.104477611907e+001 0.000000000000e+000 0.000000000000e+000
          9.253731343250e+001 0.000000000000e+000 0.000000000000e+000
          9.402985074593e+001 0.000000000000e+000 0.000000000000e+000
          9.552238805936e+001 0.000000000000e+000 0.000000000000e+000
          9.701492537279e+001 0.000000000000e+000 0.000000000000e+000
          9.850746268622e+001 0.000000000000e+000 0.000000000000e+000
          9.999999999965e+001 0.000000000000e+000 0.000000000000e+000
          1.014925373131e+002 0.000000000000e+000 0.000000000000e+000
          1.029850746265e+002 0.000000000000e+000 0.000000000000e+000
          1.044776119399e+002 0.000000000000e+000 0.000000000000e+000
          1.059701492534e+002 0.000000000000e+000 0.000000000000e+000
          1.074626865668e+002 0.000000000000e+000 0.000000000000e+000
          1.089552238802e+002 0.000000000000e+000 0.000000000000e+000
          1.104477611937e+002 0.000000000000e+000 0.000000000000e+000
          1.119402985071e+002 0.000000000000e+000 0.000000000000e+000
          1.134328358205e+002 0.000000000000e+000 0.000000000000e+000
          1.149253731340e+002 0.000000000000e+000 0.000000000000e+000
          1.164179104474e+002 0.000000000000e+000 0.000000000000e+000
          1.179104477608e+002 0.000000000000e+000 0.000000000000e+000
          1.194029850742e+002 0.000000000000e+000 0.000000000000e+000
          1.208955223877e+002 0.000000000000e+000 0.000000000000e+000
          1.223880597011e+002 0.000000000000e+000 0.000000000000e+000
          1.238805970145e+002 0.000000000000e+000 0.000000000000e+000
          1.253731343280e+002 0.000000000000e+000 0.000000000000e+000
          1.268656716414e+002 0.000000000000e+000 0.000000000000e+000
          1.283582089548e+002 0.000000000000e+000 0.000000000000e+000
          1.298507462683e+002 0.000000000000e+000 0.000000000000e+000
          1.313432835817e+002 0.000000000000e+000 0.000000000000e+000
          1.328358208952e+002 0.000000000000e+000 0.000000000000e+000
          1.343283582086e+002 0.000000000000e+000 0.000000000000e+000
          1.358208955220e+002 0.000000000000e+000 0.000000000000e+000
          1.373134328355e+002 0.000000000000e+000 0.000000000000e+000
          1.388059701489e+002 0.000000000000e+000 0.000000000000e+000
          1.402985074624e+002 0.000000000000e+000 0.000000000000e+000
          1.417910447758e+002 0.000000000000e+000 0.000000000000e+000
          1.432835820892e+002 0.000000000000e+000 0.000000000000e+000
          1.447761194027e+002 0.000000000000e+000 0.000000000000e+000
          1.462686567161e+002 0.000000000000e+000 0.000000000000e+000
          1.477611940296e+002 0.000000000000e+000 0.000000000000e+000
          1.492537313430e+002 0.000000000000e+000 0.000000000000e+000
          1.507462686564e+002 0.000000000000e+000 0.000000000000e+000
          1.522388059699e+002 0.000000000000e+000 0.000000000000e+000
          1.537313432833e+002 0.000000000000e+000 0.000000000000e+000
          1.552238805968e+002 0.000000000000e+000 0.000000000000e+000
          1.567164179102e+002 0.000000000000e+000 0.000000000000e+000
          1.582089552237e+002 0.000000000000e+000 0.000000000000e+000
          1.597014925371e+002 0.000000000000e+000 0.000000000000e+000
          1.611940298505e+002 0.000000000000e+000 0.000000000000e+000
          1.626865671640e+002 0.000000000000e+000 0.000000000000e+000
          1.641791044774e+002 0.000000000000e+000 0.000000000000e+000
          1.656716417909e+002 0.000000000000e+000 0.000000000000e+000
          1.671641791043e+002 0.000000000000e+000 0.000000000000e+000
          1.686567164177e+002 0.000000000000e+000 0.000000000000e+000
          1.701492537312e+002 0.000000000000e+000 0.000000000000e+000
          1.716417910446e+002 0.000000000000e+000 0.000000000000e+000
          1.731343283581e+002 0.000000000000e+000 0.000000000000e+000
          1.746268656715e+002 0.000000000000e+000 0.000000000000e+000
          1.761194029849e+002 0.000000000000e+000 0.000000000000e+000
          1.776119402984e+002 0.000000000000e+000 0.000000000000e+000
          1.791044776118e+002 0.000000000000e+000 0.000000000000e+000
          1.805970149253e+002 0.000000000000e+000 0.000000000000e+000
          1.820895522387e+002 0.000000000000e+000 0.000000000000e+000
          1.835820895521e+002 0.000000000000e+000 0.000000000000e+000
          1.850746268656e+002 0.000000000000e+000 0.000000000000e+000
          1.865671641790e+002 0.000000000000e+000 0.000000000000e+000
          1.880597014925e+002 0.000000000000e+000 0.000000000000e+000
          1.895522388059e+002 0.000000000000e+000 0.000000000000e+000
          1.910447761194e+002 0.000000000000e+000 0.000000000000e+000
          1.925373134328e+002 0.000000000000e+000 0.000000000000e+000
          1.940298507462e+002 0.000000000000e+000 0.000000000000e+000
          1.955223880597e+002 0.000000000000e+000 0.000000000000e+000
          1.970149253731e+002 0.000000000000e+000 0.000000000000e+000
          1.985074626866e+002 0.000000000000e+000 0.000000000000e+000
          2.000000000000e+002 1.428571428570e+000 0.000000000000e+000
          2.000000000000e+002 2.857142857140e+000 0.000000000000e+000
[...]
      <PointData Scalars="Capillary_Pressure">
        <DataArray type="Float64" Name="Capillary_Pressure" format="ascii">
          3.848680507276e+005 0.000000000000e+000 0.000000000000e+000 3.848704695596e+005 3.850975139549e+005 3.823553836480e+005 3.814934706396e+005 3.795576524337e+005 3.792846571622e+005 3.773856222836e+005 3.753549924422e+005 3.752792325833e+005 3.731068561882e+005 3.729391788065e+005 3.710697276931e+005 3.686942016342e+005 3.687318816202e+005 3.667133241354e+005 3.663067497892e+005 3.642003778877e+005 3.608001698177e+005 3.605997191655e+005 3.600360602552e+005 3.570272212293e+005 3.566960369221e+005 3.545092680003e+005 3.538885653962e+005 3.507440894010e+005 3.502487177752e+005 3.481829441667e+005 3.475514842726e+005 3.443494590636e+005 3.438284898112e+005 3.418515632641e+005 3.411219212409e+005 3.375171995224e+005 3.374436585411e+005 3.348349428803e+005 3.324421556022e+005 3.321658572227e+005 3.313795437483e+005 3.282151354631e+005 3.255519976925e+005 3.251826362844e+005 3.215279832852e+005 3.210632412850e+005 3.182308491207e+005 3.177550141241e+005 3.153185938794e+005 3.144181795329e+005 3.103303169910e+005 3.101495393539e+005 3.062949057715e+005 3.057467233808e+005 3.017815366574e+005 3.004305355492e+005 2.982467914917e+005 2.977930861283e+005 2.966729720767e+005 2.928837447061e+005 2.896620147567e+005 2.893041680375e+005 2.852612782605e+005 2.845605278746e+005 2.816471725342e+005 2.782748963606e+005 2.752667393875e+005 2.746602509350e+005 2.701076341308e+005 2.685180663260e+005 2.659076670173e+005 2.627619484147e+005 2.619193371073e+005 2.590471382356e+005 2.553164003038e+005 2.519885145710e+005 2.514568067157e+005 2.479180358402e+005 2.446794558921e+005 2.433804222651e+005 2.376746341707e+005 2.342921517268e+005 2.311670645544e+005 2.275623298926e+005 2.240353723436e+005 2.203096126806e+005 2.195936835059e+005 2.160871485215e+005 2.122090324083e+005 2.086711843067e+005 2.014444968057e+005 1.975775120110e+005 1.936646899752e+005 1.892998066140e+005 1.866675679247e+005 1.790849221792e+005 1.745650099021e+005 1.720884635801e+005 1.639239349777e+005 1.576896374356e+005 1.546213239147e+005 1.444652778735e+005 1.379165643006e+005 1.308191050921e+005 1.220222920388e+005 1.127711818841e+005 1.026563143976e+005 9.038056807061e+004 7.681648866745e+004 5.983570027380e+004 3.765658082830e+004 5.846454689080e+003 0.000000000000e+000 0.000000000000e+000 0.000000000000e+000 0.000000000000e+000 0.000000000000e+000 0.000000000000e+000 0.000000000000e+000 0.000000000000e+000 0.000000000000e+000 0.000000000000e+000 0.000000000000e+000 0.000000000000e+000 0.000000000000e+000 0.000000000000e+000 0.000000000000e+000 0.000000000000e+000 0.000000000000e+000 0.000000000000e+000 0.000000000000e+000 0.000000000000e+000 0.000000000000e+000 0.000000000000e+000 0.000000000000e+000 0.000000000000e+000 0.000000000000e+000 0.000000000000e+000 0.000000000000e+000 0.000000000000e+000 0.000000000000e+000 0.000000000000e+000 0.000000000000e+000 0.000000000000e+000 0.000000000000e+000 0.000000000000e+000 0.000000000000e+000 0.000000000000e+000 0.000000000000e+000 0.000000000000e+000 0.000000000000e+000 0.000000000000e+000 0.000000000000e+000 0.000000000000e+000 0.000000000000e+000 0.000000000000e+000 0.000000000000e+000 0.000000000000e+000 0.000000000000e+000 0.000000000000e+000 0.000000000000e+000 0.000000000000e+000 0.000000000000e+000 0.000000000000e+000 0.000000000000e+000 0.000000000000e+000 0.000000000000e+000 0.000000000000e+000 0.000000000000e+000 0.000000000000e+000 0.000000000000e+000 0.000000000000e+000 0.000000000000e+000 0.000000000000e+000 0.000000000000e+000 5.844686930795e+003 3.764504065535e+004 5.980409970724e+004 7.680836908418e+004 9.036451214050e+004 1.026600096953e+005 1.127926325294e+005 1.220103250558e+005 1.308167132214e+005 1.379097284817e+005 1.444573179075e+005 1.546184936925e+005 1.576814073764e+005 1.639055609951e+005 1.720821733582e+005 1.745612753970e+005 1.790932140870e+005 1.866556220867e+005 1.892964494723e+005 1.936540026726e+005 1.975604746917e+005 2.014314433632e+005 2.086622760510e+005 2.122155961273e+005 2.160934507818e+005 2.195911735283e+005 2.203111095147e+005 2.240421950794e+005 2.275750875417e+005 2.311576281836e+005 2.342991804930e+005 2.376496307777e+005 2.433734705063e+005 2.446635617921e+005 2.479250088227e+005 2.514415485109e+005 2.519775900266e+005 2.553036323551e+005 2.590343388252e+005 2.619342048389e+005 2.652680771173e+005 2.659089074926e+005 2.685018129517e+005 2.700827576499e+005 2.746732674704e+005 2.778468837193e+005 2.782631044409e+005 2.815802906178e+005 2.845672608101e+005 2.852667260213e+005 2.893008268882e+005 2.896700781737e+005 2.929140675658e+005 2.966705088711e+005 2.977964884278e+005 2.982637512109e+005 3.004492628097e+005 3.047951244372e+005 3.057669694206e+005 3.062948761393e+005 3.101586736701e+005 3.103735061033e+005 3.144001324685e+005 3.152876876751e+005 3.177445033105e+005 3.182151907530e+005 3.210425184161e+005 3.243078651528e+005 3.251831752279e+005 3.255367714172e+005 3.282123293774e+005 3.313802791879e+005 3.321691110319e+005 3.324337505837e+005 3.348358563266e+005 3.374447563206e+005 3.375148290621e+005 3.411197269586e+005 3.418476678747e+005 3.438261930262e+005 3.443525971267e+005 3.475490447471e+005 3.481819422670e+005 3.502479203148e+005 3.507379385318e+005 3.538902513417e+005 3.545035962457e+005 3.566957592596e+005 3.570314817957e+005 3.600364826962e+005 3.606017444918e+005 3.608079764732e+005 3.641901807104e+005 3.663033579930e+005 3.667135248937e+005 3.687407059490e+005 3.686836736115e+005 3.710395390756e+005 3.710983661123e+005 3.731231578804e+005 3.752774636293e+005 3.753462168842e+005 3.773932091976e+005 3.792906900270e+005 3.795709452414e+005 3.814529181909e+005 3.823583036644e+005 3.850970490126e+005 3.848704910823e+005 3.848680966647e+005 3.848712646023e+005 3.848703185379e+005 3.848671246890e+005 3.848688214522e+005 3.848695157159e+005 3.848671062757e+005 3.848678847222e+005 3.848705718017e+005 3.848691449854e+005 3.848674677966e+005 3.848678763602e+005 0.000000000000e+000 3.773687881507e+005 0.000000000000e+000 0.000000000000e+000 5.085008225591e+004 1.347544650531e+005 1.791258487470e+005 3.603938879936e+005 2.082834776814e+005 3.482157801849e+005 3.377064068966e+005 3.254489952383e+005 3.054067967758e+005 2.899153327664e+005 2.741414577574e+005 2.549414082988e+005 2.346455236143e+005 3.689271017540e+005 3.153070157690e+005 2.202936957863e+005 2.233243688943e+005 2.446575012901e+005 2.652815720777e+005 2.815618007733e+005 2.978003097192e+005 0.000000000000e+000 0.000000000000e+000 1.014428818420e+005 2.977952858858e+005 2.817597119935e+005 2.651223427568e+005 2.442924944470e+005 1.574970639011e+005 1.936409140051e+005 3.545182978861e+005 3.438988348942e+005 3.320988395139e+005 1.935904856896e+005 1.576642268256e+005 1.026381864738e+005 0.000000000000e+000 0.000000000000e+000 3.321922810544e+005 3.438304713612e+005 3.544957688555e+005 0.000000000000e+000 0.000000000000e+000 3.183311450714e+005 3.106977526005e+005 3.729347563039e+005 3.641917539456e+005 0.000000000000e+000 3.795652601601e+005 0.000000000000e+000 3.795741471906e+005 3.726971848745e+005 3.642360934904e+005 3.211913011664e+005 3.099169424857e+005 0.000000000000e+000 2.346395172165e+005 0.000000000000e+000 2.549374286620e+005 2.741319751423e+005 2.898988239893e+005 3.050335331434e+005 2.083341302158e+005 4.917493996265e+004 1.338603725950e+005 1.790863109077e+005 3.482512904790e+005 3.377724720584e+005 2.092701538963e+005 1.792408186575e+005 1.346758319848e+005 4.974432017454e+004 2.899152701522e+005 2.741244116281e+005 2.549610330795e+005 0.000000000000e+000 2.346214143479e+005 0.000000000000e+000 3.255149055598e+005 3.377262824461e+005 3.482449967899e+005 3.603966336836e+005 0.000000000000e+000 0.000000000000e+000 3.753455425569e+005 3.600264391717e+005 3.016066310966e+005 3.277119024391e+005 0.000000000000e+000 3.815084988259e+005 3.689128494310e+005 3.773327225479e+005 3.689299354309e+005 3.153444799435e+005 3.208203389124e+005 3.104008090835e+005 3.731166409538e+005 3.641631876271e+005 3.152794781053e+005 0.000000000000e+000 9.235716861517e+004 0.000000000000e+000 1.547331816735e+005 0.000000000000e+000 1.897284008130e+005 2.435682814926e+005 2.784584477208e+005 2.938224191316e+005 2.620505225027e+005 3.539055224027e+005 3.323813245665e+005 3.438594939175e+005 2.239197169695e+005 3.153163422761e+005 0.000000000000e+000 3.823451703386e+005 0.000000000000e+000 3.823414078948e+005 2.390449480551e+005 2.591454399997e+005 2.784693612967e+005 2.933334614634e+005 2.014703787533e+005 2.274127508856e+005 2.161524857067e+005 1.686001015809e+005 3.284099215778e+005 1.163499577925e+005 3.416389708119e+005 0.000000000000e+000 3.510281798608e+005 0.000000000000e+000 0.000000000000e+000 0.000000000000e+000 0.000000000000e+000 0.000000000000e+000 1.171622473678e+005 8.619167405671e+004 1.687389052127e+005 1.513080956340e+005 3.509665152865e+005 1.901580165916e+005 2.014883327170e+005 3.415931731699e+005 3.445325647987e+005 2.933118881235e+005 2.784515592357e+005 2.590839558532e+005 2.848875701557e+005 2.662532991886e+005 2.429919923415e+005 2.475660786023e+005 3.324860518589e+005 2.161343396141e+005 2.271617646959e+005 0.000000000000e+000 3.568646475249e+005 0.000000000000e+000 3.444615509770e+005 8.822333066163e+004 3.325698707206e+005 1.507053721257e+005 3.006548436475e+005 2.850232494875e+005 2.663928512533e+005 2.507444759765e+005 1.903200312057e+005 3.689082808874e+005 0.000000000000e+000 0.000000000000e+000 3.097608921073e+005 3.237559724966e+005 3.640084259876e+005 2.162509608089e+005 2.662457182682e+005 2.475006626748e+005 2.848366689658e+005 3.006363297082e+005 3.568359006199e+005 3.416870124441e+005 0.000000000000e+000 3.284361825487e+005 0.000000000000e+000 1.178115461150e+005 2.013587442058e+005 1.648055670402e+005 3.567018523455e+005 0.000000000000e+000 0.000000000000e+000 3.139143113995e+005 3.731093338411e+005 0.000000000000e+000 2.159543485562e+005 2.048552243711e+005 1.721976659294e+005 3.280348022405e+005 1.227882868816e+005 3.410754093819e+005 2.853255741652e+005 2.685500579636e+005 2.515255488956e+005 0.000000000000e+000 3.570271155478e+005 0.000000000000e+000 3.664903589725e+005 3.008764720490e+005 0.000000000000e+000 0.000000000000e+000 0.000000000000e+000 2.981419858994e+005 3.314620366266e+005 3.062246689167e+005 3.244423827845e+005 3.792999347703e+005 3.607625669727e+005 3.752436129840e+005 3.709812709831e+005 3.607592119293e+005 2.376747025559e+005 2.590481644561e+005 2.778746630977e+005 2.929253921180e+005 3.942127396176e+003 3.507474080072e+005 0.000000000000e+000 2.276280440872e+005 1.866856494952e+005 7.311722150745e+003 1.443516350847e+005 0.000000000000e+000 7.675636636319e+004 2.382344408541e+005 2.590708248496e+005 2.778196112331e+005 2.928747319003e+005 3.506794296184e+005 3.348055825971e+005 3.475640550577e+005 3.475618049698e+005 7.593443958582e+004 3.343830408838e+005 1.443678089362e+005 1.865938590223e+005 2.276015547076e+005 0.000000000000e+000 0.000000000000e+000 3.823431323443e+005 3.823504376306e+005 0.000000000000e+000 3.788576429729e+005 0.000000000000e+000 0.000000000000e+000 3.774321953083e+005 0.000000000000e+000 3.752592244244e+005 3.788680747483e+005 3.246334102509e+005 3.056345489960e+005 3.602036690393e+005 3.751669332832e+005 3.252373971269e+005 3.666006163786e+005 3.667443564479e+005 3.056599146005e+005 3.708727368847e+005 3.207589677465e+005 3.140466942746e+005 3.710315479740e+005 3.413998664271e+005 2.010332656141e+005 1.680086449649e+005 1.199728828935e+005 0.000000000000e+000 0.000000000000e+000 2.163838518056e+005 3.009020450069e+005 2.846996202148e+005 2.690291559433e+005 2.511780124343e+005 3.181486703099e+005 3.666787565535e+005 3.109420832070e+005 3.177172340756e+005 0.000000000000e+000 0.000000000000e+000 3.565810673640e+005 3.308521358307e+005 3.774619828347e+005 3.795229251078e+005 0.000000000000e+000 3.709287709707e+005 2.347474604940e+005 2.579268728740e+005 2.747192834708e+005 2.896987397538e+005 2.086933064521e+005 2.090780578799e+005 2.310787388532e+005 1.745020874303e+005 1.321727890587e+005 3.255670375563e+005 3.608127316139e+004 3.378777360769e+005 0.000000000000e+000 3.502700375244e+005 0.000000000000e+000 0.000000000000e+000 3.570480503744e+004 1.321090414609e+005 1.756426393315e+005 3.502863984246e+005 3.378859230427e+005 2.896740821354e+005 2.747327804167e+005 2.579413467437e+005 0.000000000000e+000 3.600184260171e+005 3.017057910229e+005 0.000000000000e+000 0.000000000000e+000 0.000000000000e+000 3.572256807785e+005 3.608658454371e+005 3.752456254664e+005 3.143374479966e+005 0.000000000000e+000 0.000000000000e+000 1.077290461304e+005 1.611226812139e+005 1.978381909147e+005 3.545791651367e+005 3.417766468470e+005 3.317315312223e+005 2.446948604505e+005 2.817669513100e+005 2.982156495949e+005 2.658819185477e+005 2.199739224471e+005 0.000000000000e+000 0.000000000000e+000 0.000000000000e+000 0.000000000000e+000 1.351896223609e+005 1.789761772774e+005 3.378015493755e+005 2.897518952371e+005 2.738288579841e+005 2.547410658780e+005 3.817297231009e+005 3.178091037491e+005 2.090135707099e+005 2.086901684634e+005 3.050495238920e+005 0.000000000000e+000 3.849407227340e+005 3.280408332220e+005 3.006224153217e+005 1.936881298598e+005 1.577433473859e+005 1.026928574350e+005 0.000000000000e+000 0.000000000000e+000 3.321446664423e+005 3.438105558060e+005 3.545071506556e+005 2.652667724628e+005 2.446694723898e+005 2.977971025260e+005 2.816427653838e+005 0.000000000000e+000 0.000000000000e+000 2.816324371868e+005 2.652500617940e+005 1.026428199654e+005 2.446727695372e+005 1.576947396318e+005 1.936135400977e+005 3.438331421856e+005 2.202632959665e+005 2.203222117607e+005 3.664696775245e+005 3.216430677600e+005 3.686914755832e+005 2.985978185107e+005 3.151185056074e+005 0.000000000000e+000 0.000000000000e+000 3.101598832788e+005 3.066786071330e+005 3.147524077596e+005 2.044623537151e+005 2.352356054938e+005 2.312072617839e+005 2.117887695768e+005 2.512604380204e+005 2.696752983664e+005 2.888951008705e+005 1.818859478138e+005 3.479808202068e+005 3.371123527447e+005 0.000000000000e+000 6.775478636212e+004 1.410545161327e+005 0.000000000000e+000 3.479780187144e+005 6.781598365218e+004 3.371082096205e+005 2.888917719840e+005 2.696531061215e+005 2.516449260205e+005 1.410608304622e+005 1.818943215225e+005 3.818237425935e+005 3.751199344317e+005 0.000000000000e+000 3.818168402261e+005 2.346038173344e+005 2.346894556444e+005 3.482553004667e+005 3.482620955039e+005 4.869709124462e+004 4.918333267678e+004 0.000000000000e+000 3.708287324486e+005 3.773657682052e+005 3.600028266077e+005 3.689422926715e+005 0.000000000000e+000 3.849426705759e+005 0.000000000000e+000 3.849410374420e+005 3.729552394318e+005 0.000000000000e+000 0.000000000000e+000 1.792729697325e+005 1.347001116356e+005 3.377252898607e+005 2.548284426469e+005 2.899515029538e+005 2.741808862548e+005 0.000000000000e+000 3.642963128651e+005 3.642532577661e+005 3.752590981773e+005 3.060281604019e+005 3.247908755318e+005 3.752811349615e+005 3.606082858732e+005 3.544057525917e+005 3.209018035364e+005 3.637463826070e+005 0.000000000000e+000 0.000000000000e+000 3.238233172473e+005 3.064317212080e+005 0.000000000000e+000 3.256819240274e+005 3.062895130624e+005 3.102425368557e+005 0.000000000000e+000 3.568610526376e+005 0.000000000000e+000 2.853186313056e+005 2.685596848325e+005 2.515193660600e+005 2.127484274815e+005 3.416179149243e+005 1.164179029117e+005 3.307795108040e+005 1.686584173136e+005 2.049522074228e+005 0.000000000000e+000 3.667352273465e+005 3.110289429350e+005 3.175886859216e+005 3.255294445945e+005 3.710605467336e+005 0.000000000000e+000 3.849427291507e+005 0.000000000000e+000 3.850841899140e+005 3.775003443335e+005 3.603763023718e+005 3.154011292865e+005 3.208888396539e+005 0.000000000000e+000 3.323876177931e+005 2.974097422845e+005 3.642651396129e+005 3.059589520790e+005 3.688167668452e+005 1.902262442801e+005 1.501813190522e+005 8.712210354508e+004 3.326155677438e+005 3.445358230071e+005 7.499242537352e+004 0.000000000000e+000 1.442551391160e+005 9.495280085173e+003 1.864771019992e+005 3.476000068461e+005 3.344152728801e+005 3.501821049320e+005 2.928329351547e+005 2.589670080640e+005 2.751732574133e+005 2.384314364110e+005 0.000000000000e+000 0.000000000000e+000 3.509875859726e+005 2.272568950733e+005 2.934083414595e+005 2.785529288347e+005 2.592138556365e+005 2.430168161422e+005 2.276886622568e+005 2.202961851778e+005 2.446623730772e+005 2.816487614647e+005 2.652944903809e+005 2.978003707884e+005 0.000000000000e+000 0.000000000000e+000 1.026026994835e+005 1.936347619507e+005 1.576576645310e+005 3.544995459406e+005 3.438310108512e+005 3.321687243630e+005 3.248425076632e+005 3.607514662615e+005 0.000000000000e+000 3.774942646378e+005 2.278369711136e+005 2.382998374095e+005 2.588656140728e+005 2.775970702535e+005 2.927222463031e+005 1.491691742617e+004 0.000000000000e+000 3.500853044537e+005 7.329047066746e+004 1.441221976666e+005 1.863272680246e+005 3.477905902664e+005 3.344654639306e+005 3.149560162524e+005 0.000000000000e+000 3.178664655457e+005 0.000000000000e+000 2.234565144126e+005 2.201982070567e+005 2.444636598384e+005 2.649436811102e+005 2.814003076652e+005 2.974883999632e+005 0.000000000000e+000 0.000000000000e+000 1.040041706513e+005 1.615053581350e+005 1.931970248894e+005 3.437257254341e+005 1.937638351717e+005 2.815210600734e+005 2.628937074312e+005 2.445113845713e+005 1.577930129781e+005 1.027367820610e+005 3.321087793384e+005 0.000000000000e+000 3.437887728153e+005 0.000000000000e+000 3.545043540383e+005 3.689258790926e+005 0.000000000000e+000 3.541136236406e+005 0.000000000000e+000 2.784982391088e+005 2.436293715678e+005 2.619168830167e+005 2.938488382890e+005 3.437562787106e+005 9.346748371372e+004 3.320810056749e+005 1.535120599274e+005 1.899431801768e+005 2.237040103258e+005 3.774037228770e+005 0.000000000000e+000 3.849442351851e+005 0.000000000000e+000 0.000000000000e+000 0.000000000000e+000 3.180256149119e+005 3.111845218861e+005 3.644097717127e+005 3.544422892293e+005 0.000000000000e+000 3.770105772921e+005 0.000000000000e+000 0.000000000000e+000 3.605251759490e+005 2.050197845485e+005 1.723300717244e+005 3.281345647757e+005 1.263188495129e+005 3.410199282709e+005 2.514268131112e+005 2.685585521718e+005 2.852536851175e+005 2.127564325227e+005 0.000000000000e+000 3.571130614170e+005 0.000000000000e+000 3.255438174622e+005 3.051172679299e+005 3.182564076846e+005 3.730787475120e+005 3.752439537047e+005 0.000000000000e+000 3.815363356479e+005 0.000000000000e+000 3.815375233719e+005 2.973631322100e+005 3.323714179673e+005 3.006292741201e+005 3.709641080357e+005 0.000000000000e+000 3.817365050640e+005 3.212510897995e+005 3.106269040020e+005 3.183589473989e+005 3.644329685046e+005 3.729775820863e+005 3.687687625884e+005 3.285396467737e+005 3.729836109948e+005 3.667758594804e+005 3.181734829462e+005 3.753566031098e+005 3.731659913470e+005 3.148676838769e+005 3.242261308265e+005 3.104500831920e+005 3.209722555129e+005 0.000000000000e+000 3.792965174840e+005 3.569792138686e+005 2.199120535402e+005 2.118586128569e+005 0.000000000000e+000 0.000000000000e+000 0.000000000000e+000 0.000000000000e+000 1.228821504094e+005 1.722758218976e+005 3.410351405102e+005 1.972474825924e+005 2.044048348646e+005 2.982171645006e+005 3.007543999458e+005 2.844821173192e+005 2.888338346421e+005 2.695792280479e+005 2.654430045397e+005 2.479200726403e+005 2.519674426684e+005 3.795581810144e+005 0.000000000000e+000 0.000000000000e+000 0.000000000000e+000 0.000000000000e+000 3.818499520894e+005 0.000000000000e+000 2.388649705441e+005 2.590216620892e+005 2.783637530272e+005 2.926364935001e+005 2.274227686029e+005 2.156938971210e+005 2.016146769413e+005 1.688166995268e+005 3.283107023003e+005 1.172213098635e+005 3.415564592072e+005 0.000000000000e+000 3.509556613409e+005 0.000000000000e+000 0.000000000000e+000 0.000000000000e+000 0.000000000000e+000 1.172432753125e+005 1.68815