<?xml version="1.0"?>
<VTKFile type="UnstructuredGrid" version="0.1" byte_order="LittleEndian">
  <UnstructuredGrid>
    <Piece NumberOfPoints="2604" NumberOfCells="4910">
      <Points>
        <DataArray type="Float64" NumberOfComponents="3" format="ascii">
          0.000000000000e+000 0.000000000000e+000 0.000000000000e+000
          2.000000000000e+002 0.000000000000e+000 0.000000000000e+000
          2.000000000000e+002 2.000000000000e+001 0.000000000000e+000
          0.000000000000e+000 2.000000000000e+001 0.000000000000e+000
          1.492537313427e+000 0.000000000000e+000 0.000000000000e+000
          2.985074626854e+000 0.000000000000e+000 0.000000000000e+000
          4.477611940281e+000 0.000000000000e+000 0.000000000000e+000
          5.970149253708e+000 0.000000000000e+000 0.000000000000e+000
          7.462686567135e+000 0.000000000000e+000 0.000000000000e+000
          8.955223880561e+000 0.000000000000e+000 0.000000000000e+000
          1.044776119399e+001 0.000000000000e+000 0.000000000000e+000
          1.194029850741e+001 0.000000000000e+000 0.000000000000e+000
          1.343283582084e+001 0.000000000000e+000 0.000000000000e+000
          1.492537313427e+001 0.000000000000e+000 0.000000000000e+000
          1.641791044770e+001 0.000000000000e+000 0.000000000000e+000
          1.791044776112e+001 0.000000000000e+000 0.000000000000e+000
          1.940298507455e+001 0.000000000000e+000 0.000000000000e+000
          2.089552238798e+001 0.000000000000e+000 0.000000000000e+000
          2.238805970141e+001 0.000000000000e+000 0.000000000000e+000
          2.388059701484e+001 0.000000000000e+000 0.000000000000e+000
          2.537313432826e+001 0.000000000000e+000 0.000000000000e+000
          2.686567164169e+001 0.000000000000e+000 0.000000000000e+000
          2.835820895511e+001 0.000000000000e+000 0.000000000000e+000
          2.985074626854e+001 0.000000000000e+000 0.000000000000e+000
          3.134328358196e+001 0.000000000000e+000 0.000000000000e+000
          3.283582089539e+001 0.000000000000e+000 0.000000000000e+000
          3.432835820881e+001 0.000000000000e+000 0.000000000000e+000
          3.582089552224e+001 0.000000000000e+000 0.000000000000e+000
          3.731343283566e+001 0.000000000000e+000 0.000000000000e+000
          3.880597014909e+001 0.000000000000e+000 0.000000000000e+000
          4.029850746251e+001 0.000000000000e+000 0.000000000000e+000
          4.179104477594e+001 0.000000000000e+000 0.000000000000e+000
          4.328358208936e+001 0.000000000000e+000 0.000000000000e+000
          4.477611940279e+001 0.000000000000e+000 0.000000000000e+000
          4.626865671621e+001 0.000000000000e+000 0.000000000000e+000
          4.776119402964e+001 0.000000000000e+000 0.000000000000e+000
          4.925373134306e+001 0.000000000000e+000 0.000000000000e+000
          5.074626865649e+001 0.000000000000e+000 0.000000000000e+000
          5.223880596991e+001 0.000000000000e+000 0.000000000000e+000
          5.373134328334e+001 0.000000000000e+000 0.000000000000e+000
          5.522388059676e+001 0.000000000000e+000 0.000000000000e+000
          5.671641791019e+001 0.000000000000e+000 0.000000000000e+000
          5.820895522361e+001 0.000000000000e+000 0.000000000000e+000
          5.970149253704e+001 0.000000000000e+000 0.000000000000e+000
          6.119402985046e+001 0.000000000000e+000 0.000000000000e+000
          6.268656716389e+001 0.000000000000e+000 0.000000000000e+000
          6.417910447732e+001 0.000000000000e+000 0.000000000000e+000
          6.567164179075e+001 0.000000000000e+000 0.000000000000e+000
          6.716417910418e+001 0.000000000000e+000 0.000000000000e+000
          6.865671641761e+001 0.000000000000e+000 0.000000000000e+000
          7.014925373104e+001 0.000000000000e+000 0.000000000000e+000
          7.164179104447e+001 0.000000000000e+000 0.000000000000e+000
          7.313432835790e+001 0.000000000000e+000 0.000000000000e+000
          7.462686567133e+001 0.000000000000e+000 0.000000000000e+000
          7.611940298476e+001 0.000000000000e+000 0.000000000000e+000
          7.761194029819e+001 0.000000000000e+000 0.000000000000e+000
          7.910447761162e+001 0.000000000000e+000 0.000000000000e+000
          8.059701492505e+001 0.000000000000e+000 0.000000000000e+000
          8.208955223848e+001 0.000000000000e+000 0.000000000000e+000
          8.358208955191e+001 0.000000000000e+000 0.000000000000e+000
          8.507462686534e+001 0.000000000000e+000 0.000000000000e+000
          8.656716417877e+001 0.000000000000e+000 0.000000000000e+000
          8.805970149220e+001 0.000000000000e+000 0.000000000000e+000
          8.955223880563e+001 0.000000000000e+000 0.000000000000e+000
          9.104477611907e+001 0.000000000000e+000 0.000000000000e+000
          9.253731343250e+001 0.000000000000e+000 0.000000000000e+000
          9.402985074593e+001 0.000000000000e+000 0.000000000000e+000
          9.552238805936e+001 0.000000000000e+000 0.000000000000e+000
          9.701492537279e+001 0.000000000000e+000 0.000000000000e+000
          9.850746268622e+001 0.000000000000e+000 0.000000000000e+000
          9.999999999965e+001 0.000000000000e+000 0.000000000000e+000
          1.014925373131e+002 0.000000000000e+000 0.000000000000e+000
          1.029850746265e+002 0.000000000000e+000 0.000000000000e+000
          1.044776119399e+002 0.000000000000e+000 0.000000000000e+000
          1.059701492534e+002 0.000000000000e+000 0.000000000000e+000
          1.074626865668e+002 0.000000000000e+000 0.000000000000e+000
          1.089552238802e+002 0.000000000000e+000 0.000000000000e+000
          1.104477611937e+002 0.000000000000e+000 0.000000000000e+000
          1.119402985071e+002 0.000000000000e+000 0.000000000000e+000
          1.134328358205e+002 0.000000000000e+000 0.000000000000e+000
          1.149253731340e+002 0.000000000000e+000 0.000000000000e+000
          1.164179104474e+002 0.000000000000e+000 0.000000000000e+000
          1.179104477608e+002 0.000000000000e+000 0.000000000000e+000
          1.194029850742e+002 0.000000000000e+000 0.000000000000e+000
          1.208955223877e+002 0.000000000000e+000 0.000000000000e+000
          1.223880597011e+002 0.000000000000e+000 0.000000000000e+000
          1.238805970145e+002 0.000000000000e+000 0.000000000000e+000
          1.253731343280e+002 0.000000000000e+000 0.000000000000e+000
          1.268656716414e+002 0.000000000000e+000 0.000000000000e+000
          1.283582089548e+002 0.000000000000e+000 0.000000000000e+000
          1.298507462683e+002 0.000000000000e+000 0.000000000000e+000
          1.313432835817e+002 0.000000000000e+000 0.000000000000e+000
          1.328358208952e+002 0.000000000000e+000 0.000000000000e+000
          1.343283582086e+002 0.000000000000e+000 0.000000000000e+000
          1.358208955220e+002 0.000000000000e+000 0.000000000000e+000
          1.373134328355e+002 0.000000000000e+000 0.000000000000e+000
          1.388059701489e+002 0.000000000000e+000 0.000000000000e+000
          1.402985074624e+002 0.000000000000e+000 0.000000000000e+000
          1.417910447758e+002 0.000000000000e+000 0.000000000000e+000
          1.432835820892e+002 0.000000000000e+000 0.000000000000e+000
          1.447761194027e+002 0.000000000000e+000 0.000000000000e+000
          1.462686567161e+002 0.000000000000e+000 0.000000000000e+000
          1.477611940296e+002 0.000000000000e+000 0.000000000000e+000
          1.492537313430e+002 0.000000000000e+000 0.000000000000e+000
          1.507462686564e+002 0.000000000000e+000 0.000000000000e+000
          1.522388059699e+002 0.000000000000e+000 0.000000000000e+000
          1.537313432833e+002 0.000000000000e+000 0.000000000000e+000
          1.552238805968e+002 0.000000000000e+000 0.000000000000e+000
          1.567164179102e+002 0.000000000000e+000 0.000000000000e+000
          1.582089552237e+002 0.000000000000e+000 0.000000000000e+000
          1.597014925371e+002 0.000000000000e+000 0.000000000000e+000
          1.611940298505e+002 0.000000000000e+000 0.000000000000e+000
          1.626865671640e+002 0.000000000000e+000 0.000000000000e+000
          1.641791044774e+002 0.000000000000e+000 0.000000000000e+000
          1.656716417909e+002 0.000000000000e+000 0.000000000000e+000
          1.671641791043e+002 0.000000000000e+000 0.000000000000e+000
          1.686567164177e+002 0.000000000000e+000 0.000000000000e+000
          1.701492537312e+002 0.000000000000e+000 0.000000000000e+000
          1.716417910446e+002 0.000000000000e+000 0.000000000000e+000
          1.731343283581e+002 0.000000000000e+000 0.000000000000e+000
          1.746268656715e+002 0.000000000000e+000 0.000000000000e+000
          1.761194029849e+002 0.000000000000e+000 0.000000000000e+000
          1.776119402984e+002 0.000000000000e+000 0.000000000000e+000
          1.791044776118e+002 0.000000000000e+000 0.000000000000e+000
          1.805970149253e+002 0.000000000000e+000 0.000000000000e+000
          1.820895522387e+002 0.000000000000e+000 0.000000000000e+000
          1.835820895521e+002 0.000000000000e+000 0.000000000000e+000
          1.850746268656e+002 0.000000000000e+000 0.000000000000e+000
          1.865671641790e+002 0.000000000000e+000 0.000000000000e+000
          1.880597014925e+002 0.000000000000e+000 0.000000000000e+000
          1.895522388059e+002 0.000000000000e+000 0.000000000000e+000
          1.910447761194e+002 0.000000000000e+000 0.000000000000e+000
          1.925373134328e+002 0.000000000000e+000 0.000000000000e+000
          1.940298507462e+002 0.000000000000e+000 0.000000000000e+000
          1.955223880597e+002 0.000000000000e+000 0.000000000000e+000
          1.970149253731e+002 0.000000000000e+000 0.000000000000e+000
          1.985074626866e+002 0.000000000000e+000 0.000000000000e+000
          2.000000000000e+002 1.428571428570e+000 0.000000000000e+000
          2.000000000000e+002 2.857142857140e+000 0.000000000000e+000
[...]
      <PointData Scalars="Capillary_Pressure">
        <DataArray type="Float64" Name="Capillary_Pressure" format="ascii">
          3.850431357339e+005 0.000000000000e+000 0.000000000000e+000 3.850455232271e+005 3.852722481040e+005 3.825321400142e+005 3.816702627811e+005 3.797354214495e+005 3.794624526433e+005 3.775642978710e+005 3.755343374762e+005 3.754585098632e+005 3.732868447579e+005 3.731189665788e+005 3.712484439928e+005 3.688738184800e+005 3.689120943920e+005 3.668937781725e+005 3.664866617388e+005 3.643807399726e+005 3.609816622137e+005 3.607801271255e+005 3.602159895257e+005 3.572078708784e+005 3.568756842362e+005 3.546890803696e+005 3.540674165634e+005 3.509235369878e+005 3.504269895464e+005 3.483611425510e+005 3.477282897460e+005 3.445267296376e+005 3.440046669657e+005 3.420273756241e+005 3.412961535351e+005 3.376923238983e+005 3.376164290332e+005 3.350074761032e+005 3.326148501897e+005 3.323363812132e+005 3.315481008428e+005 3.283844700925e+005 3.257193574162e+005 3.253493533185e+005 3.216933203220e+005 3.212274665833e+005 3.183953244880e+005 3.179165304693e+005 3.154792878388e+005 3.145772150233e+005 3.104891505257e+005 3.103062609464e+005 3.064512346986e+005 3.059006569100e+005 3.019356886962e+005 3.005817809807e+005 2.983971966425e+005 2.979408276845e+005 2.968186642393e+005 2.930287108307e+005 2.898067427962e+005 2.894456364293e+005 2.854013694285e+005 2.846999030928e+005 2.817842116563e+005 2.784106854416e+005 2.754015093029e+005 2.747919935605e+005 2.702396909776e+005 2.686472137975e+005 2.660359822543e+005 2.628887374207e+005 2.620424348128e+005 2.591688478053e+005 2.554370611799e+005 2.521084850237e+005 2.515732242453e+005 2.480329511286e+005 2.447930612997e+005 2.434905781040e+005 2.377850180253e+005 2.344022180361e+005 2.312739288277e+005 2.276687228468e+005 2.241398940255e+005 2.204130899613e+005 2.196940470104e+005 2.161857658762e+005 2.123057209200e+005 2.087670940221e+005 2.015411915419e+005 1.976723998634e+005 1.937573902875e+005 1.893928076569e+005 1.867582026305e+005 1.791768355246e+005 1.746561376188e+005 1.721771983604e+005 1.640145797233e+005 1.577809554369e+005 1.547108242946e+005 1.445589168062e+005 1.380118608177e+005 1.309165996993e+005 1.221243272238e+005 1.128789717277e+005 1.027718995077e+005 9.050883768945e+004 7.696296455287e+004 6.001261019009e+004 3.788756749328e+004 6.154674596453e+003 0.000000000000e+000 0.000000000000e+000 0.000000000000e+000 0.000000000000e+000 0.000000000000e+000 0.000000000000e+000 0.000000000000e+000 0.000000000000e+000 0.000000000000e+000 0.000000000000e+000 0.000000000000e+000 0.000000000000e+000 0.000000000000e+000 0.000000000000e+000 0.000000000000e+000 0.000000000000e+000 0.000000000000e+000 0.000000000000e+000 0.000000000000e+000 0.000000000000e+000 0.000000000000e+000 0.000000000000e+000 0.000000000000e+000 0.000000000000e+000 0.000000000000e+000 0.000000000000e+000 0.000000000000e+000 0.000000000000e+000 0.000000000000e+000 0.000000000000e+000 0.000000000000e+000 0.000000000000e+000 0.000000000000e+000 0.000000000000e+000 0.000000000000e+000 0.000000000000e+000 0.000000000000e+000 0.000000000000e+000 0.000000000000e+000 0.000000000000e+000 0.000000000000e+000 0.000000000000e+000 0.000000000000e+000 0.000000000000e+000 0.000000000000e+000 0.000000000000e+000 0.000000000000e+000 0.000000000000e+000 0.000000000000e+000 0.000000000000e+000 0.000000000000e+000 0.000000000000e+000 0.000000000000e+000 0.000000000000e+000 0.000000000000e+000 0.000000000000e+000 0.000000000000e+000 0.000000000000e+000 0.000000000000e+000 0.000000000000e+000 0.000000000000e+000 0.000000000000e+000 0.000000000000e+000 6.152246821482e+003 3.787582543987e+004 5.998121089206e+004 7.695471706633e+004 9.049301595526e+004 1.027755544250e+005 1.129003059291e+005 1.221124001949e+005 1.309142240371e+005 1.380050752025e+005 1.445511401647e+005 1.547078701985e+005 1.577727090197e+005 1.639964752890e+005 1.721708584453e+005 1.746525317909e+005 1.791845773874e+005 1.867465582450e+005 1.893893316674e+005 1.937469102504e+005 1.976552641877e+005 2.015271100202e+005 2.087582904956e+005 2.123121454091e+005 2.161918235734e+005 2.196917267007e+005 2.204139788521e+005 2.241470106390e+005 2.276810628288e+005 2.312643896531e+005 2.344088697579e+005 2.377607096513e+005 2.434833979635e+005 2.447769219849e+005 2.480395157668e+005 2.515580619754e+005 2.520974008767e+005 2.554241127847e+005 2.591562627343e+005 2.620572374353e+005 2.653931836990e+005 2.660369602471e+005 2.686307717370e+005 2.702151436619e+005 2.748050092655e+005 2.779799664601e+005 2.783984093213e+005 2.817176922792e+005 2.847060172205e+005 2.854063701131e+005 2.894429098295e+005 2.898146779330e+005 2.930588466532e+005 2.968160672427e+005 2.979444716669e+005 2.984137815994e+005 3.006011552513e+005 3.049466791867e+005 3.059210437097e+005 3.064513620141e+005 3.103148454463e+005 3.105320343649e+005 3.145590354337e+005 3.154485713827e+005 3.179056021499e+005 3.183789542104e+005 3.212071469104e+005 3.244719222742e+005 3.253497495392e+005 3.257047289559e+005 3.283811479636e+005 3.315492708651e+005 3.323394655503e+005 3.326066132368e+005 3.350085624161e+005 3.376174435111e+005 3.376900856823e+005 3.412937978022e+005 3.420235044995e+005 3.440023286644e+005 3.445298817398e+005 3.477258694383e+005 3.483601487781e+005 3.504261812702e+005 3.509174538708e+005 3.540689905416e+005 3.546834344379e+005 3.568755100238e+005 3.572120742852e+005 3.602162951355e+005 3.607824139009e+005 3.609896087979e+005 3.643705957873e+005 3.664833273222e+005 3.668941550263e+005 3.689208168190e+005 3.688637069197e+005 3.712205237663e+005 3.712793271718e+005 3.733033852743e+005 3.754563871548e+005 3.755260424348e+005 3.775716921126e+005 3.794685313306e+005 3.797487774819e+005 3.816296768483e+005 3.825349449938e+005 3.852717951133e+005 3.850454352344e+005 3.850430335595e+005 3.850462703813e+005 3.850452788353e+005 3.850422358628e+005 3.850438129632e+005 3.850444489476e+005 3.850421582365e+005 3.850429123260e+005 3.850454364096e+005 3.850442257113e+005 3.850423951488e+005 3.850428655280e+005 0.000000000000e+000 3.775472674230e+005 0.000000000000e+000 0.000000000000e+000 5.104728550480e+004 1.348505688205e+005 1.792159058333e+005 3.605740461762e+005 2.083808618109e+005 3.483943971726e+005 3.378799530932e+005 3.256158349228e+005 3.055594941452e+005 2.900574226132e+005 2.742718260539e+005 2.550605388090e+005 2.347534264273e+005 3.691076530210e+005 3.154678373113e+005 2.203969900389e+005 2.234258132867e+005 2.447712342543e+005 2.654052492760e+005 2.816996090273e+005 2.979479873368e+005 0.000000000000e+000 0.000000000000e+000 1.015596574700e+005 2.979431657692e+005 2.818961519252e+005 2.652471312156e+005 2.444068923848e+005 1.575881232864e+005 1.937351212708e+005 3.546981431677e+005 3.440754477167e+005 3.322689563855e+005 1.936829391060e+005 1.577555405959e+005 1.027538712629e+005 0.000000000000e+000 0.000000000000e+000 3.323629743104e+005 3.440066110499e+005 3.546755432947e+005 0.000000000000e+000 0.000000000000e+000 3.184954256403e+005 3.108556243706e+005 3.731149323873e+005 3.643720788411e+005 0.000000000000e+000 3.797431277078e+005 0.000000000000e+000 3.797518517578e+005 3.728768943779e+005 3.644167316016e+005 3.213560159976e+005 3.100729630952e+005 0.000000000000e+000 2.347467446186e+005 0.000000000000e+000 2.550564690867e+005 2.742623296783e+005 2.900410172796e+005 3.051857744046e+005 2.084318728727e+005 4.937615896472e+004 1.339568210404e+005 1.791757216345e+005 3.484303439669e+005 3.379464572873e+005 2.093674140952e+005 1.793305467811e+005 1.347718380984e+005 4.994428925853e+004 2.900573138399e+005 2.742550428402e+005 2.550799498648e+005 0.000000000000e+000 2.347297505194e+005 0.000000000000e+000 3.256819862549e+005 3.379004682421e+005 3.484240191809e+005 3.605766669361e+005 0.000000000000e+000 0.000000000000e+000 3.755252417394e+005 3.602060141007e+005 3.017600237515e+005 3.278793361060e+005 0.000000000000e+000 3.816850787964e+005 3.690933855457e+005 3.775112496745e+005 3.691103084197e+005 3.155076458477e+005 3.209821351007e+005 3.105577306389e+005 3.732967328281e+005 3.643428793161e+005 3.154401175571e+005 0.000000000000e+000 9.248299793645e+004 0.000000000000e+000 1.548228597403e+005 0.000000000000e+000 1.898207377542e+005 2.436806820003e+005 2.785914811520e+005 2.939693293856e+005 2.621720457035e+005 3.540843991300e+005 3.325538020140e+005 3.440370788070e+005 2.240237395300e+005 3.154764675171e+005 0.000000000000e+000 3.825218591171e+005 0.000000000000e+000 3.825179738041e+005 2.391568900869e+005 2.592719591806e+005 2.786051773718e+005 2.934797131397e+005 2.015648779143e+005 2.275173311466e+005 2.162524619485e+005 1.686886621711e+005 3.285791067974e+005 1.164552752109e+005 3.418141456742e+005 0.000000000000e+000 3.512081352360e+005 0.000000000000e+000 0.000000000000e+000 0.000000000000e+000 0.000000000000e+000 0.000000000000e+000 1.172669473893e+005 8.632544350577e+004 1.688278263488e+005 1.513988290241e+005 3.511462730749e+005 1.902498560422e+005 2.015829609493e+005 3.417681181695e+005 3.447111361656e+005 2.934592157044e+005 2.785868454255e+005 2.592080779628e+005 2.850273773289e+005 2.663821944501e+005 2.431013034529e+005 2.476829298768e+005 3.326585708636e+005 2.162340163148e+005 2.272652997390e+005 0.000000000000e+000 3.570445687893e+005 0.000000000000e+000 3.446398026340e+005 8.835398186001e+004 3.327423114484e+005 1.507972935786e+005 3.008054434326e+005 2.851626453391e+005 2.665215877689e+005 2.508594104195e+005 1.904108451802e+005 3.690888302164e+005 0.000000000000e+000 0.000000000000e+000 3.099164707832e+005 3.239195084598e+005 3.641883766182e+005 2.163509341875e+005 2.663736003071e+005 2.476190013417e+005 2.849772353214e+005 3.007867778261e+005 3.570157208273e+005 3.418627610692e+005 0.000000000000e+000 3.286064936591e+005 0.000000000000e+000 1.179146073223e+005 2.014523163495e+005 1.648976148901e+005 3.568816821101e+005 0.000000000000e+000 0.000000000000e+000 3.140716818653e+005 3.732893187373e+005 0.000000000000e+000 2.160521072019e+005 2.049483143579e+005 1.722864884022e+005 3.282035475824e+005 1.228897814484e+005 3.412498668528e+005 2.854661658084e+005 2.686803672692e+005 2.516413744192e+005 0.000000000000e+000 3.572076965706e+005 0.000000000000e+000 3.666708942200e+005 3.010273539217e+005 0.000000000000e+000 0.000000000000e+000 0.000000000000e+000 2.982917854444e+005 3.316318220022e+005 3.063806684779e+005 3.246078300332e+005 3.794775701849e+005 3.609443193628e+005 3.754228518290e+005 3.711609456584e+005 3.609407777920e+005 2.377868858651e+005 2.591702789480e+005 2.780076859139e+005 2.930704326484e+005 4.253739428542e+003 3.509269321224e+005 0.000000000000e+000 2.277340684430e+005 1.867757586816e+005 7.617681567089e+003 1.444453972760e+005 0.000000000000e+000 7.690258585419e+004 2.383456885887e+005 2.591922136320e+005 2.779517516861e+005 2.930192137074e+005 3.508593432179e+005 3.349786152257e+005 3.477408684591e+005 3.477387910408e+005 7.608235142820e+004 3.345565806209e+005 1.444614489490e+005 1.866844631324e+005 2.277079407350e+005 0.000000000000e+000 0.000000000000e+000 3.825197384990e+005 3.825268907810e+005 0.000000000000e+000 3.790355941935e+005 0.000000000000e+000 0.000000000000e+000 3.776109406373e+005 0.000000000000e+000 3.754387436225e+005 3.790462089142e+005 3.247983787424e+005 3.057904524469e+005 3.603852678293e+005 3.753464203866e+005 3.254037474914e+005 3.667812142829e+005 3.669247546364e+005 3.058135112439e+005 3.710529793645e+005 3.209216397633e+005 3.142046740407e+005 3.712120987963e+005 3.415742385106e+005 2.011294711459e+005 1.680993623377e+005 1.200759457492e+005 0.000000000000e+000 0.000000000000e+000 2.164831551558e+005 3.010530144580e+005 2.848405636049e+005 2.691577423244e+005 2.512938437829e+005 3.183109805625e+005 3.668593365002e+005 3.111014272397e+005 3.178808434069e+005 0.000000000000e+000 0.000000000000e+000 3.567615024774e+005 3.310191322009e+005 3.776408343570e+005 3.797007948829e+005 0.000000000000e+000 3.711091634783e+005 2.348577505817e+005 2.580473910076e+005 2.748519418788e+005 2.898443997680e+005 2.087886754176e+005 2.091758603247e+005 2.311873754257e+005 1.745933857675e+005 1.322687513597e+005 3.257349521971e+005 3.631634365382e+004 3.380526587867e+005 0.000000000000e+000 3.504481556209e+005 0.000000000000e+000 0.000000000000e+000 3.594088905951e+004 1.322048480186e+005 1.757324841471e+005 3.504644400160e+005 3.380610039691e+005 2.898194086687e+005 2.748650128302e+005 2.580612810689e+005 0.000000000000e+000 3.601981367534e+005 3.018594555031e+005 0.000000000000e+000 0.000000000000e+000 0.000000000000e+000 3.574070945654e+005 3.610470516454e+005 3.754250793314e+005 3.144959512220e+005 0.000000000000e+000 0.000000000000e+000 1.078406797871e+005 1.612135473270e+005 1.979304027957e+005 3.547595716371e+005 3.419530117496e+005 3.319008622707e+005 2.448103973131e+005 2.819041689607e+005 2.983646936620e+005 2.660082643973e+005 2.200748142572e+005 0.000000000000e+000 0.000000000000e+000 0.000000000000e+000 0.000000000000e+000 1.352843998147e+005 1.790654938984e+005 3.379752937209e+005 2.898931754818e+005 2.739584818611e+005 2.548595285649e+005 3.819062214031e+005 3.179691193731e+005 2.091103375027e+005 2.087892273138e+005 3.052019757110e+005 0.000000000000e+000 3.851152924084e+005 3.282095030797e+005 3.007743938385e+005 1.937826713083e+005 1.578347205306e+005 1.028086426705e+005 0.000000000000e+000 0.000000000000e+000 3.323147214787e+005 3.439869358200e+005 3.546869492840e+005 2.653921614207e+005 2.447825818343e+005 2.979449827016e+005 2.817800639804e+005 0.000000000000e+000 0.000000000000e+000 2.817710825346e+005 2.653756005993e+005 1.027584899332e+005 2.447857835483e+005 1.577861524575e+005 1.937076865855e+005 3.440097248044e+005 2.203665379444e+005 2.204253297624e+005 3.666500388766e+005 3.218086337647e+005 3.688713428750e+005 2.987489661329e+005 3.152786209749e+005 0.000000000000e+000 0.000000000000e+000 3.103172846876e+005 3.068353822131e+005 3.149117787288e+005 2.045595989935e+005 2.353449748958e+005 2.313136521425e+005 2.118884957291e+005 2.513796666070e+005 2.698058908612e+005 2.890358418882e+005 1.819781610502e+005 3.481583249295e+005 3.372845333627e+005 0.000000000000e+000 6.791637471362e+004 1.411488691762e+005 0.000000000000e+000 3.481555989590e+005 6.797731962847e+004 3.372805538211e+005 2.890330522154e+005 2.697839844636e+005 2.517641227045e+005 1.411550638299e+005 1.819860361778e+005 3.820003854829e+005 3.752995306501e+005 0.000000000000e+000 3.819934006145e+005 2.347105910680e+005 2.347973371885e+005 3.484344278941e+005 3.484408972797e+005 4.889950812143e+004 4.938432039032e+004 0.000000000000e+000 3.710094544219e+005 3.775442808462e+005 3.601823544158e+005 3.691224415686e+005 0.000000000000e+000 3.851174483405e+005 0.000000000000e+000 3.851157455273e+005 3.731355197578e+005 0.000000000000e+000 0.000000000000e+000 1.793628974080e+005 1.347964082748e+005 3.378989318297e+005 2.549476687809e+005 2.900938834286e+005 2.743114048508e+005 0.000000000000e+000 3.644766804451e+005 3.644337392622e+005 3.754387460429e+005 3.061829462166e+005 3.249561143262e+005 3.754605128694e+005 3.607893734208e+005 3.545853209032e+005 3.210651901791e+005 3.639264952582e+005 0.000000000000e+000 0.000000000000e+000 3.239877493838e+005 3.065878146444e+005 0.000000000000e+000 3.258494177839e+005 3.064457650127e+005 3.103991827837e+005 0.000000000000e+000 3.570409152825e+005 0.000000000000e+000 2.854596062824e+005 2.686906431801e+005 2.516353432749e+005 2.128462946819e+005 3.417931372460e+005 1.165232352500e+005 3.309481101756e+005 1.687469774035e+005 2.050466961209e+005 0.000000000000e+000 3.669152062220e+005 3.111885186239e+005 3.177503850952e+005 3.256965232191e+005 3.712417870013e+005 0.000000000000e+000 3.851176864985e+005 0.000000000000e+000 3.852589201884e+005 3.776791827524e+005 3.605562035618e+005 3.155623227699e+005 3.210517240796e+005 0.000000000000e+000 3.325589357371e+005 2.975567681507e+005 3.644454577681e+005 3.061133415619e+005 3.689948640995e+005 1.903161771917e+005 1.502733610431e+005 8.725424292688e+004 3.327888990512e+005 3.447139376068e+005 7.514179130733e+004 0.000000000000e+000 1.443484907713e+005 9.797394829137e+003 1.865675197406e+005 3.477767499306e+005 3.345896010618e+005 3.503621453701e+005 2.929772678053e+005 2.590872993511e+005 2.753072641914e+005 2.385417847289e+005 0.000000000000e+000 0.000000000000e+000 3.511676428638e+005 2.273607266963e+005 2.935544824361e+005 2.786889200268e+005 2.593403327143e+005 2.431263177223e+005 2.277960015343e+005 2.203994439759e+005 2.447754119978e+005 2.817852946355e+005 2.654180561941e+005 2.979483138109e+005 0.000000000000e+000 0.000000000000e+000 1.027182355293e+005 1.937295913928e+005 1.577494259186e+005 3.546793672197e+005 3.440078324793e+005 3.323392879594e+005 3.250085562705e+005 3.609323711988e+005 0.000000000000e+000 3.776730374145e+005 2.279433960583e+005 2.384100547725e+005 2.589859576905e+005 2.777298820380e+005 2.928661580476e+005 1.520879061268e+004 0.000000000000e+000 3.502651046538e+005 7.344283532999e+004 1.442154444605e+005 1.864176898010e+005 3.479676733946e+005 3.346390048613e+005 3.151194739557e+005 0.000000000000e+000 3.180274137726e+005 0.000000000000e+000 2.235583339398e+005 2.203005348020e+005 2.445759126833e+005 2.650697890243e+005 2.815383553945e+005 2.976349271555e+005 0.000000000000e+000 0.000000000000e+000 1.041190076682e+005 1.615944984480e+005 1.932901926441e+005 3.439017157483e+005 1.938581833072e+005 2.816575805279e+005 2.630222635795e+005 2.446242737270e+005 1.578843655254e+005 1.028526888698e+005 3.322788893452e+005 0.000000000000e+000 3.439650818031e+005 0.000000000000e+000 3.546841130334e+005 3.691066675203e+005 0.000000000000e+000 3.542926618721e+005 0.000000000000e+000 2.786327899942e+005 2.437422859732e+005 2.620408691980e+005 2.939972831362e+005 3.439331072500e+005 9.359239860253e+004 3.322542568677e+005 1.536035382750e+005 1.900378004209e+005 2.238083200996e+005 3.775823207618e+005 0.000000000000e+000 3.851189851114e+005 0.000000000000e+000 0.000000000000e+000 0.000000000000e+000 3.181866007854e+005 3.113447273475e+005 3.645905577755e+005 3.546218752774e+005 0.000000000000e+000 3.771893439208e+005 0.000000000000e+000 0.000000000000e+000 3.607056282596e+005 2.051150089035e+005 1.724194123414e+005 3.283027319574e+005 1.264169244582e+005 3.411937438510e+005 2.515429640570e+005 2.686887012155e+005 2.853938184073e+005 2.128554148168e+005 0.000000000000e+000 3.572938967450e+005 0.000000000000e+000 3.257110194627e+005 3.052698796025e+005 3.184208384994e+005 3.732589776363e+005 3.754231598450e+005 0.000000000000e+000 3.817130423046e+005 0.000000000000e+000 3.817141238973e+005 2.975096591426e+005 3.325426490470e+005 3.007818478711e+005 3.711439050474e+005 0.000000000000e+000 3.819133270233e+005 3.214159124407e+005 3.107842698956e+005 3.185234610244e+005 3.646137520599e+005 3.731576646916e+005 3.689501749228e+005 3.287100768253e+005 3.731637255539e+005 3.669563608681e+005 3.183344836962e+005 3.755360417553e+005 3.733461529885e+005 3.150275504894e+005 3.243898843030e+005 3.106071094732e+005 3.211361908815e+005 0.000000000000e+000 3.794743745186e+005 3.571593601558e+005 2.200121914943e+005 2.119582945063e+005 0.000000000000e+000 0.000000000000e+000 0.000000000000e+000 0.000000000000e+000 1.229839210017e+005 1.723650091098e+005 3.412091983827e+005 1.973421410482e+005 2.045011799849e+005 2.983671952924e+005 3.009068155013e+005 2.846225207691e+005 2.889740463222e+005 2.697099620214e+005 2.655721673174e+005 2.480342018889e+005 2.520848640739e+005 3.797359350766e+005 0.000000000000e+000 0.000000000000e+000 0.000000000000e+000 0.000000000000e+000 3.820265473764e+005 0.000000000000e+000 2.389771013883e+005 2.591457955401e+005 2.784985868887e+005 2.927838909484e+005 2.275270413809e+005 2.157937397355e+005 2.017090471932e+005 1.689055889501e+005 3.284801215849e+005 1.173262336320e+005 3.417315508150e+005 0.000000000000e+000 3.511357324711e+005 0.000000000000e+000 0.000000000000e+000 0.000000000000e+000 0.000000000000e+000 1.173481098465e+005 1.68904