<?xml version="1.0"?>
<VTKFile type="UnstructuredGrid" version="0.1" byte_order="LittleEndian">
  <UnstructuredGrid>
    <Piece NumberOfPoints="2604" NumberOfCells="4910">
      <Points>
        <DataArray type="Float64" NumberOfComponents="3" format="ascii">
          0.000000000000e+000 0.000000000000e+000 0.000000000000e+000
          2.000000000000e+002 0.000000000000e+000 0.000000000000e+000
          2.000000000000e+002 2.000000000000e+001 0.000000000000e+000
          0.000000000000e+000 2.000000000000e+001 0.000000000000e+000
          1.492537313427e+000 0.000000000000e+000 0.000000000000e+000
          2.985074626854e+000 0.000000000000e+000 0.000000000000e+000
          4.477611940281e+000 0.000000000000e+000 0.000000000000e+000
          5.970149253708e+000 0.000000000000e+000 0.000000000000e+000
          7.462686567135e+000 0.000000000000e+000 0.000000000000e+000
          8.955223880561e+000 0.000000000000e+000 0.000000000000e+000
          1.044776119399e+001 0.000000000000e+000 0.000000000000e+000
          1.194029850741e+001 0.000000000000e+000 0.000000000000e+000
          1.343283582084e+001 0.000000000000e+000 0.000000000000e+000
          1.492537313427e+001 0.000000000000e+000 0.000000000000e+000
          1.641791044770e+001 0.000000000000e+000 0.000000000000e+000
          1.791044776112e+001 0.000000000000e+000 0.000000000000e+000
          1.940298507455e+001 0.000000000000e+000 0.000000000000e+000
          2.089552238798e+001 0.000000000000e+000 0.000000000000e+000
          2.238805970141e+001 0.000000000000e+000 0.000000000000e+000
          2.388059701484e+001 0.000000000000e+000 0.000000000000e+000
          2.537313432826e+001 0.000000000000e+000 0.000000000000e+000
          2.686567164169e+001 0.000000000000e+000 0.000000000000e+000
          2.835820895511e+001 0.000000000000e+000 0.000000000000e+000
          2.985074626854e+001 0.000000000000e+000 0.000000000000e+000
          3.134328358196e+001 0.000000000000e+000 0.000000000000e+000
          3.283582089539e+001 0.000000000000e+000 0.000000000000e+000
          3.432835820881e+001 0.000000000000e+000 0.000000000000e+000
          3.582089552224e+001 0.000000000000e+000 0.000000000000e+000
          3.731343283566e+001 0.000000000000e+000 0.000000000000e+000
          3.880597014909e+001 0.000000000000e+000 0.000000000000e+000
          4.029850746251e+001 0.000000000000e+000 0.000000000000e+000
          4.179104477594e+001 0.000000000000e+000 0.000000000000e+000
          4.328358208936e+001 0.000000000000e+000 0.000000000000e+000
          4.477611940279e+001 0.000000000000e+000 0.000000000000e+000
          4.626865671621e+001 0.000000000000e+000 0.000000000000e+000
          4.776119402964e+001 0.000000000000e+000 0.000000000000e+000
          4.925373134306e+001 0.000000000000e+000 0.000000000000e+000
          5.074626865649e+001 0.000000000000e+000 0.000000000000e+000
          5.223880596991e+001 0.000000000000e+000 0.000000000000e+000
          5.373134328334e+001 0.000000000000e+000 0.000000000000e+000
          5.522388059676e+001 0.000000000000e+000 0.000000000000e+000
          5.671641791019e+001 0.000000000000e+000 0.000000000000e+000
          5.820895522361e+001 0.000000000000e+000 0.000000000000e+000
          5.970149253704e+001 0.000000000000e+000 0.000000000000e+000
          6.119402985046e+001 0.000000000000e+000 0.000000000000e+000
          6.268656716389e+001 0.000000000000e+000 0.000000000000e+000
          6.417910447732e+001 0.000000000000e+000 0.000000000000e+000
          6.567164179075e+001 0.000000000000e+000 0.000000000000e+000
          6.716417910418e+001 0.000000000000e+000 0.000000000000e+000
          6.865671641761e+001 0.000000000000e+000 0.000000000000e+000
          7.014925373104e+001 0.000000000000e+000 0.000000000000e+000
          7.164179104447e+001 0.000000000000e+000 0.000000000000e+000
          7.313432835790e+001 0.000000000000e+000 0.000000000000e+000
          7.462686567133e+001 0.000000000000e+000 0.000000000000e+000
          7.611940298476e+001 0.000000000000e+000 0.000000000000e+000
          7.761194029819e+001 0.000000000000e+000 0.000000000000e+000
          7.910447761162e+001 0.000000000000e+000 0.000000000000e+000
          8.059701492505e+001 0.000000000000e+000 0.000000000000e+000
          8.208955223848e+001 0.000000000000e+000 0.000000000000e+000
          8.358208955191e+001 0.000000000000e+000 0.000000000000e+000
          8.507462686534e+001 0.000000000000e+000 0.000000000000e+000
          8.656716417877e+001 0.000000000000e+000 0.000000000000e+000
          8.805970149220e+001 0.000000000000e+000 0.000000000000e+000
          8.955223880563e+001 0.000000000000e+000 0.000000000000e+000
          9.104477611907e+001 0.000000000000e+000 0.000000000000e+000
          9.253731343250e+001 0.000000000000e+000 0.000000000000e+000
          9.402985074593e+001 0.000000000000e+000 0.000000000000e+000
          9.552238805936e+001 0.000000000000e+000 0.000000000000e+000
          9.701492537279e+001 0.000000000000e+000 0.000000000000e+000
          9.850746268622e+001 0.000000000000e+000 0.000000000000e+000
          9.999999999965e+001 0.000000000000e+000 0.000000000000e+000
          1.014925373131e+002 0.000000000000e+000 0.000000000000e+000
          1.029850746265e+002 0.000000000000e+000 0.000000000000e+000
          1.044776119399e+002 0.000000000000e+000 0.000000000000e+000
          1.059701492534e+002 0.000000000000e+000 0.000000000000e+000
          1.074626865668e+002 0.000000000000e+000 0.000000000000e+000
          1.089552238802e+002 0.000000000000e+000 0.000000000000e+000
          1.104477611937e+002 0.000000000000e+000 0.000000000000e+000
          1.119402985071e+002 0.000000000000e+000 0.000000000000e+000
          1.134328358205e+002 0.000000000000e+000 0.000000000000e+000
          1.149253731340e+002 0.000000000000e+000 0.000000000000e+000
          1.164179104474e+002 0.000000000000e+000 0.000000000000e+000
          1.179104477608e+002 0.000000000000e+000 0.000000000000e+000
          1.194029850742e+002 0.000000000000e+000 0.000000000000e+000
          1.208955223877e+002 0.000000000000e+000 0.000000000000e+000
          1.223880597011e+002 0.000000000000e+000 0.000000000000e+000
          1.238805970145e+002 0.000000000000e+000 0.000000000000e+000
          1.253731343280e+002 0.000000000000e+000 0.000000000000e+000
          1.268656716414e+002 0.000000000000e+000 0.000000000000e+000
          1.283582089548e+002 0.000000000000e+000 0.000000000000e+000
          1.298507462683e+002 0.000000000000e+000 0.000000000000e+000
          1.313432835817e+002 0.000000000000e+000 0.000000000000e+000
          1.328358208952e+002 0.000000000000e+000 0.000000000000e+000
          1.343283582086e+002 0.000000000000e+000 0.000000000000e+000
          1.358208955220e+002 0.000000000000e+000 0.000000000000e+000
          1.373134328355e+002 0.000000000000e+000 0.000000000000e+000
          1.388059701489e+002 0.000000000000e+000 0.000000000000e+000
          1.402985074624e+002 0.000000000000e+000 0.000000000000e+000
          1.417910447758e+002 0.000000000000e+000 0.000000000000e+000
          1.432835820892e+002 0.000000000000e+000 0.000000000000e+000
          1.447761194027e+002 0.000000000000e+000 0.000000000000e+000
          1.462686567161e+002 0.000000000000e+000 0.000000000000e+000
          1.477611940296e+002 0.000000000000e+000 0.000000000000e+000
          1.492537313430e+002 0.000000000000e+000 0.000000000000e+000
          1.507462686564e+002 0.000000000000e+000 0.000000000000e+000
          1.522388059699e+002 0.000000000000e+000 0.000000000000e+000
          1.537313432833e+002 0.000000000000e+000 0.000000000000e+000
          1.552238805968e+002 0.000000000000e+000 0.000000000000e+000
          1.567164179102e+002 0.000000000000e+000 0.000000000000e+000
          1.582089552237e+002 0.000000000000e+000 0.000000000000e+000
          1.597014925371e+002 0.000000000000e+000 0.000000000000e+000
          1.611940298505e+002 0.000000000000e+000 0.000000000000e+000
          1.626865671640e+002 0.000000000000e+000 0.000000000000e+000
          1.641791044774e+002 0.000000000000e+000 0.000000000000e+000
          1.656716417909e+002 0.000000000000e+000 0.000000000000e+000
          1.671641791043e+002 0.000000000000e+000 0.000000000000e+000
          1.686567164177e+002 0.000000000000e+000 0.000000000000e+000
          1.701492537312e+002 0.000000000000e+000 0.000000000000e+000
          1.716417910446e+002 0.000000000000e+000 0.000000000000e+000
          1.731343283581e+002 0.000000000000e+000 0.000000000000e+000
          1.746268656715e+002 0.000000000000e+000 0.000000000000e+000
          1.761194029849e+002 0.000000000000e+000 0.000000000000e+000
          1.776119402984e+002 0.000000000000e+000 0.000000000000e+000
          1.791044776118e+002 0.000000000000e+000 0.000000000000e+000
          1.805970149253e+002 0.000000000000e+000 0.000000000000e+000
          1.820895522387e+002 0.000000000000e+000 0.000000000000e+000
          1.835820895521e+002 0.000000000000e+000 0.000000000000e+000
          1.850746268656e+002 0.000000000000e+000 0.000000000000e+000
          1.865671641790e+002 0.000000000000e+000 0.000000000000e+000
          1.880597014925e+002 0.000000000000e+000 0.000000000000e+000
          1.895522388059e+002 0.000000000000e+000 0.000000000000e+000
          1.910447761194e+002 0.000000000000e+000 0.000000000000e+000
          1.925373134328e+002 0.000000000000e+000 0.000000000000e+000
          1.940298507462e+002 0.000000000000e+000 0.000000000000e+000
          1.955223880597e+002 0.000000000000e+000 0.000000000000e+000
          1.970149253731e+002 0.000000000000e+000 0.000000000000e+000
          1.985074626866e+002 0.000000000000e+000 0.000000000000e+000
          2.000000000000e+002 1.428571428570e+000 0.000000000000e+000
          2.000000000000e+002 2.857142857140e+000 0.000000000000e+000
[...]
      <PointData Scalars="Capillary_Pressure">
        <DataArray type="Float64" Name="Capillary_Pressure" format="ascii">
          3.854117513060e+005 0.000000000000e+000 0.000000000000e+000 3.854140775174e+005 3.856400793877e+005 3.829043291688e+005 3.820424534783e+005 3.801096585084e+005 3.798367469847e+005 3.779404563004e+005 3.759118475632e+005 3.758359093362e+005 3.736658114328e+005 3.734976894868e+005 3.716240544224e+005 3.692513509162e+005 3.692915320515e+005 3.672736305877e+005 3.668654018259e+005 3.647603895244e+005 3.613636661653e+005 3.611598441372e+005 3.605947505377e+005 3.575881227946e+005 3.572538497291e+005 3.550675757204e+005 3.544438799232e+005 3.513012361118e+005 3.508022032740e+005 3.487362266508e+005 3.481004093203e+005 3.448997024371e+005 3.443754770997e+005 3.423974361331e+005 3.416628917150e+005 3.380609109295e+005 3.379799258938e+005 3.353704911155e+005 3.329783869303e+005 3.326953060158e+005 3.319027564680e+005 3.287411193057e+005 3.260712842687e+005 3.257004258198e+005 3.220407402718e+005 3.215729875671e+005 3.187417265145e+005 3.182563999720e+005 3.158174249233e+005 3.149118975922e+005 3.108234046859e+005 3.106362511524e+005 3.067801563356e+005 3.062245912762e+005 3.022602639904e+005 3.008996599126e+005 2.987136453083e+005 2.982516136657e+005 2.971252792213e+005 2.933337008982e+005 2.901113187348e+005 2.897432965545e+005 2.856956872085e+005 2.849935089440e+005 2.820724932063e+005 2.786960968980e+005 2.756849451879e+005 2.750690411913e+005 2.705175338640e+005 2.689187535814e+005 2.663061819249e+005 2.631555209597e+005 2.623012491574e+005 2.594248407729e+005 2.556907067225e+005 2.523609978457e+005 2.518181610989e+005 2.482746667028e+005 2.450320113767e+005 2.437223293460e+005 2.380166793195e+005 2.346341395762e+005 2.314984992406e+005 2.278924873005e+005 2.243596178760e+005 2.206306801119e+005 2.199052148965e+005 2.163933454437e+005 2.125088269308e+005 2.089686645189e+005 2.017446066841e+005 1.978723112746e+005 1.939513592222e+005 1.895882562277e+005 1.869485583639e+005 1.793700953713e+005 1.748475604649e+005 1.723636970721e+005 1.642049916396e+005 1.579727716941e+005 1.548988652049e+005 1.447555557632e+005 1.382119534212e+005 1.311213387807e+005 1.223384638686e+005 1.131052293456e+005 1.030144174461e+005 9.077773899798e+004 7.726989964321e+004 6.038282427513e+004 3.837061197309e+004 6.800710712893e+003 0.000000000000e+000 0.000000000000e+000 0.000000000000e+000 0.000000000000e+000 0.000000000000e+000 0.000000000000e+000 0.000000000000e+000 0.000000000000e+000 0.000000000000e+000 0.000000000000e+000 0.000000000000e+000 0.000000000000e+000 0.000000000000e+000 0.000000000000e+000 0.000000000000e+000 0.000000000000e+000 0.000000000000e+000 0.000000000000e+000 0.000000000000e+000 0.000000000000e+000 0.000000000000e+000 0.000000000000e+000 0.000000000000e+000 0.000000000000e+000 0.000000000000e+000 0.000000000000e+000 0.000000000000e+000 0.000000000000e+000 0.000000000000e+000 0.000000000000e+000 0.000000000000e+000 0.000000000000e+000 0.000000000000e+000 0.000000000000e+000 0.000000000000e+000 0.000000000000e+000 0.000000000000e+000 0.000000000000e+000 0.000000000000e+000 0.000000000000e+000 0.000000000000e+000 0.000000000000e+000 0.000000000000e+000 0.000000000000e+000 0.000000000000e+000 0.000000000000e+000 0.000000000000e+000 0.000000000000e+000 0.000000000000e+000 0.000000000000e+000 0.000000000000e+000 0.000000000000e+000 0.000000000000e+000 0.000000000000e+000 0.000000000000e+000 0.000000000000e+000 0.000000000000e+000 0.000000000000e+000 0.000000000000e+000 0.000000000000e+000 0.000000000000e+000 0.000000000000e+000 0.000000000000e+000 6.796695776812e+003 3.835850634503e+004 6.035254839452e+004 7.726139366558e+004 9.076240156408e+004 1.030177795511e+005 1.131264582150e+005 1.223267085365e+005 1.311189384575e+005 1.382053434027e+005 1.447481469911e+005 1.548956209696e+005 1.579645266241e+005 1.641876184525e+005 1.723571094101e+005 1.748442946053e+005 1.793762710038e+005 1.869379065080e+005 1.895844017301e+005 1.939413944540e+005 1.978546248011e+005 2.017278921393e+005 2.089604691519e+005 2.125147543205e+005 2.163985148939e+005 2.199034469817e+005 2.206299835585e+005 2.243675797325e+005 2.279037455538e+005 2.314888501779e+005 2.346397169113e+005 2.379943431340e+005 2.437142488515e+005 2.450154226602e+005 2.482801849595e+005 2.518032731858e+005 2.523494007251e+005 2.556773862609e+005 2.594128445889e+005 2.623158595743e+005 2.656565720996e+005 2.663064284589e+005 2.689018926497e+005 2.704938405056e+005 2.750820448193e+005 2.782598469327e+005 2.786828297193e+005 2.820068058947e+005 2.849980348466e+005 2.856996029583e+005 2.897421921646e+005 2.901188962416e+005 2.933634449921e+005 2.971222827631e+005 2.982559088093e+005 2.987292713146e+005 3.009207602158e+005 3.052654988398e+005 3.062453345970e+005 3.067806428057e+005 3.106433526620e+005 3.108655196080e+005 3.148934249032e+005 3.157872455316e+005 3.182443220329e+005 3.187232837471e+005 3.215537659993e+005 3.248170237365e+005 3.257003676711e+005 3.260581045214e+005 3.287364473144e+005 3.319049750618e+005 3.326980089603e+005 3.329705103988e+005 3.353719812011e+005 3.379807862895e+005 3.380589701128e+005 3.416601299223e+005 3.423936182826e+005 3.443730298797e+005 3.449028614120e+005 3.480980605001e+005 3.487352501434e+005 3.508013638655e+005 3.512952951759e+005 3.544452126641e+005 3.550619696633e+005 3.572539194759e+005 3.575921879390e+005 3.605947647486e+005 3.611627518739e+005 3.613719314897e+005 3.647504012061e+005 3.668622330760e+005 3.672744322535e+005 3.692999491950e+005 3.692424992370e+005 3.716017590414e+005 3.716603830551e+005 3.736828615995e+005 3.758329513801e+005 3.759046910091e+005 3.779473972519e+005 3.798429438101e+005 3.801231544961e+005 3.820017761606e+005 3.829068437585e+005 3.856396387317e+005 3.854137100253e+005 3.854112908198e+005 3.854146972339e+005 3.854135848856e+005 3.854109373755e+005 3.854121992217e+005 3.854126718161e+005 3.854107053500e+005 3.854114122337e+005 3.854135098612e+005 3.854128346070e+005 3.854106179914e+005 3.854112582213e+005 0.000000000000e+000 3.779230162393e+005 0.000000000000e+000 0.000000000000e+000 5.145994126975e+004 1.350521848958e+005 1.794051647516e+005 3.609532682087e+005 2.085857011070e+005 3.487702111229e+005 3.382452018711e+005 3.259667322476e+005 3.058807149614e+005 2.903561523267e+005 2.745460259368e+005 2.553112391644e+005 2.349806520050e+005 3.694877879015e+005 3.158062188848e+005 2.206141741836e+005 2.236388911782e+005 2.450105693639e+005 2.656650780118e+005 2.819898869871e+005 2.982585653300e+005 0.000000000000e+000 0.000000000000e+000 1.018046220157e+005 2.982542509636e+005 2.821825403232e+005 2.655098477447e+005 2.446476717487e+005 1.577795859053e+005 1.939332378135e+005 3.550766912831e+005 3.444473499739e+005 3.326268876324e+005 1.938768162120e+005 1.579474655935e+005 1.029966214185e+005 0.000000000000e+000 0.000000000000e+000 3.327224768246e+005 3.443773416954e+005 3.550539570936e+005 0.000000000000e+000 0.000000000000e+000 3.188409713323e+005 3.111877619710e+005 3.734945688558e+005 3.647515050435e+005 0.000000000000e+000 3.801175736442e+005 0.000000000000e+000 3.801258931213e+005 3.732552147970e+005 3.647969991227e+005 3.217026223127e+005 3.104012504904e+005 0.000000000000e+000 2.349723805508e+005 0.000000000000e+000 2.553067831468e+005 2.745365851940e+005 2.903401573524e+005 3.055060128793e+005 2.086372066964e+005 4.979712945103e+004 1.341593085087e+005 1.793635495940e+005 3.488072255000e+005 3.383127052412e+005 2.095718532108e+005 1.795190886856e+005 1.349735330766e+005 5.036275110799e+004 2.903559595534e+005 2.745300659125e+005 2.553299001727e+005 0.000000000000e+000 2.349580504306e+005 0.000000000000e+000 3.260334933245e+005 3.382672840817e+005 3.488008232953e+005 3.609556212647e+005 0.000000000000e+000 0.000000000000e+000 3.759035793443e+005 3.605839340626e+005 3.020827087771e+005 3.282317065033e+005 0.000000000000e+000 3.820567466549e+005 3.694735041696e+005 3.778870934061e+005 3.694900704344e+005 3.158512451762e+005 3.213218761554e+005 3.108878293580e+005 3.736759648618e+005 3.647208149211e+005 3.157781962416e+005 0.000000000000e+000 9.274705931455e+004 0.000000000000e+000 1.550113066011e+005 0.000000000000e+000 1.900145267264e+005 2.439176711084e+005 2.788697615010e+005 2.942778195493e+005 2.624265865078e+005 3.544609601651e+005 3.329168612913e+005 3.444108422059e+005 2.242422887500e+005 3.158131670858e+005 0.000000000000e+000 3.828938804297e+005 0.000000000000e+000 3.828896607052e+005 2.393922858198e+005 2.595391582406e+005 2.788914301801e+005 2.937871906483e+005 2.017639371877e+005 2.277373652549e+005 2.164620130605e+005 1.688747066738e+005 3.289349389632e+005 1.166763714368e+005 3.421828453933e+005 0.000000000000e+000 3.515867954690e+005 0.000000000000e+000 0.000000000000e+000 0.000000000000e+000 0.000000000000e+000 0.000000000000e+000 1.174867568425e+005 8.660593557788e+004 1.690147218662e+005 1.515894257463e+005 3.515245273105e+005 1.904435219960e+005 2.017822803403e+005 3.421363048959e+005 3.450872249823e+005 2.937694125140e+005 2.788717115014e+005 2.594692309154e+005 2.853217662281e+005 2.666534534131e+005 2.433311786424e+005 2.479286484377e+005 3.330215712584e+005 2.164432107591e+005 2.274829739836e+005 0.000000000000e+000 3.574232583688e+005 0.000000000000e+000 3.450151177905e+005 8.862796021100e+004 3.331050812702e+005 1.509905468856e+005 3.011224236048e+005 2.854558023371e+005 2.667922392955e+005 2.511011415907e+005 1.906017070129e+005 3.694689249214e+005 0.000000000000e+000 0.000000000000e+000 3.102438178842e+005 3.242637489368e+005 3.645671298335e+005 2.165603915920e+005 2.666420560020e+005 2.478687796601e+005 2.852736304358e+005 3.011034063549e+005 3.573941887487e+005 3.422328358837e+005 0.000000000000e+000 3.289649176161e+005 0.000000000000e+000 1.181309196022e+005 2.016490810400e+005 1.650917362368e+005 3.572602401638e+005 0.000000000000e+000 0.000000000000e+000 3.144028341280e+005 3.736682386846e+005 0.000000000000e+000 2.162574454612e+005 2.051433590189e+005 1.724730188064e+005 3.285583609024e+005 1.231027215443e+005 3.416171658128e+005 2.857615899638e+005 2.689547612984e+005 2.518847575154e+005 0.000000000000e+000 3.575877671996e+005 0.000000000000e+000 3.670510339983e+005 3.013446309543e+005 0.000000000000e+000 0.000000000000e+000 0.000000000000e+000 2.986067715123e+005 3.319893664940e+005 3.067088966868e+005 3.249562316403e+005 3.798514671953e+005 3.613271118748e+005 3.758002289878e+005 3.715388569339e+005 3.613230046196e+005 2.380233290484e+005 2.594273552827e+005 2.782875147659e+005 2.933755838941e+005 4.907044101237e+003 3.513047608835e+005 0.000000000000e+000 2.279569929698e+005 1.869648448613e+005 8.258953246942e+003 1.446423282417e+005 0.000000000000e+000 7.720884716503e+004 2.385799347011e+005 2.594473459180e+005 2.782291716523e+005 2.933229757070e+005 3.512381599105e+005 3.353429001408e+005 3.481129517906e+005 3.481113225780e+005 7.639229682204e+004 3.349219591928e+005 1.446581797858e+005 1.868751219092e+005 2.279318318508e+005 0.000000000000e+000 0.000000000000e+000 3.828915656929e+005 3.828983496722e+005 0.000000000000e+000 3.794101838733e+005 0.000000000000e+000 0.000000000000e+000 3.779872575829e+005 0.000000000000e+000 3.758167247865e+005 3.794212369925e+005 3.251454895789e+005 3.061185911616e+005 3.607675831921e+005 3.757243479463e+005 3.257537139549e+005 3.671614133139e+005 3.673044063245e+005 3.061366892743e+005 3.714324718573e+005 3.212636719926e+005 3.145371088870e+005 3.715923041138e+005 3.419411951883e+005 2.013318131340e+005 1.682898964200e+005 1.202922407565e+005 0.000000000000e+000 0.000000000000e+000 2.166919142226e+005 3.013706303300e+005 2.851373111713e+005 2.694284231649e+005 2.515376086157e+005 3.186523364263e+005 3.672395218316e+005 3.114366514421e+005 3.182250738642e+005 0.000000000000e+000 0.000000000000e+000 3.571412542894e+005 3.313703461301e+005 3.780173919728e+005 3.800752353812e+005 0.000000000000e+000 3.714890010783e+005 2.350902966134e+005 2.583014309066e+005 2.751311182163e+005 2.901512932307e+005 2.089888717677e+005 2.093811776707e+005 2.314164264540e+005 1.747853187860e+005 1.324702921614e+005 3.260882101281e+005 3.680803146181e+004 3.384207980990e+005 0.000000000000e+000 3.508229735582e+005 0.000000000000e+000 0.000000000000e+000 3.643476047786e+004 1.324059349609e+005 1.759211904913e+005 3.508390927843e+005 3.384295589124e+005 2.901255002420e+005 2.751432194317e+005 2.583139179881e+005 0.000000000000e+000 3.605763766571e+005 3.021827248357e+005 0.000000000000e+000 0.000000000000e+000 0.000000000000e+000 3.577890113798e+005 3.614283190524e+005 3.758028980074e+005 3.148294128269e+005 0.000000000000e+000 0.000000000000e+000 1.080750469238e+005 1.614044132801e+005 1.981237997692e+005 3.551393077500e+005 3.423241863906e+005 3.322574180968e+005 2.450536797194e+005 2.821921941889e+005 2.986781901480e+005 2.662740431052e+005 2.202866049401e+005 0.000000000000e+000 0.000000000000e+000 0.000000000000e+000 0.000000000000e+000 1.354834424898e+005 1.792531981641e+005 3.383408690819e+005 2.901902471819e+005 2.742311162527e+005 2.551086562572e+005 3.822777279100e+005 3.183051514886e+005 2.093141805713e+005 2.089977479739e+005 3.055227313779e+005 0.000000000000e+000 3.854826766705e+005 3.285645981616e+005 3.010939533449e+005 1.939823236337e+005 1.580267289718e+005 1.030514984377e+005 0.000000000000e+000 0.000000000000e+000 3.326724758068e+005 3.443582780653e+005 3.550653767320e+005 2.656563270378e+005 2.450203768962e+005 2.982561409037e+005 2.820689753926e+005 0.000000000000e+000 0.000000000000e+000 2.820633975441e+005 2.656400197346e+005 1.030013901262e+005 2.450233674361e+005 1.579781511817e+005 1.939062384406e+005 3.443815640880e+005 2.205834239701e+005 2.206418854654e+005 3.670295390280e+005 3.221565458839e+005 3.692499057190e+005 2.990669358269e+005 3.156155464815e+005 0.000000000000e+000 0.000000000000e+000 3.106489276984e+005 3.071650541319e+005 3.152471746418e+005 2.047641929174e+005 2.355748228598e+005 2.315374950539e+005 2.120984561295e+005 2.516307803471e+005 2.700806487999e+005 2.893320958548e+005 1.821721430498e+005 3.485319338473e+005 3.376468308418e+005 0.000000000000e+000 6.825456035505e+004 1.413470130447e+005 0.000000000000e+000 3.485293806739e+005 6.831524789677e+004 3.376432406667e+005 2.893306545686e+005 2.700594219093e+005 2.520150142249e+005 1.413528735787e+005 1.821787901590e+005 3.823722659535e+005 3.756778041573e+005 0.000000000000e+000 3.823650989050e+005 2.349350836331e+005 2.350244763527e+005 3.488114774285e+005 3.488171316637e+005 4.932312635143e+004 4.980457392037e+004 0.000000000000e+000 3.713902562457e+005 3.779200473265e+005 3.605601494613e+005 3.695016314593e+005 0.000000000000e+000 3.854853315557e+005 0.000000000000e+000 3.854834602173e+005 3.735151936145e+005 0.000000000000e+000 0.000000000000e+000 1.795518547866e+005 1.349985992142e+005 3.382644352350e+005 2.551983013094e+005 2.903933351280e+005 2.745859352787e+005 0.000000000000e+000 3.648562368351e+005 3.648136351934e+005 3.758171125982e+005 3.065086146687e+005 3.253037192106e+005 3.758382081531e+005 3.611705362249e+005 3.549632862034e+005 3.214087705782e+005 3.643057738752e+005 0.000000000000e+000 0.000000000000e+000 3.243340076476e+005 3.069160299048e+005 0.000000000000e+000 3.262015092096e+005 3.067745162006e+005 3.107287500882e+005 0.000000000000e+000 3.574194671490e+005 0.000000000000e+000 2.857560911403e+005 2.689667528919e+005 2.518790378520e+005 2.130513604009e+005 3.421619558733e+005 1.167442853200e+005 3.313022574446e+005 1.689329979184e+005 2.052452893798e+005 0.000000000000e+000 3.672938737029e+005 3.115242461266e+005 3.180907829408e+005 3.260480447481e+005 3.716236171995e+005 0.000000000000e+000 3.854860210789e+005 0.000000000000e+000 3.856267166266e+005 3.780556740447e+005 3.609348534350e+005 3.159015455348e+005 3.213941334944e+005 0.000000000000e+000 3.329196558328e+005 2.978661414903e+005 3.648249540212e+005 3.064381468460e+005 3.693687680446e+005 1.905046173239e+005 1.504668084460e+005 8.753121822302e+004 3.331538118477e+005 3.450888917253e+005 7.545467074912e+004 0.000000000000e+000 1.445446246336e+005 1.043004547645e+004 1.867576745749e+005 3.481486507135e+005 3.349569632908e+005 3.507411770768e+005 2.932807525952e+005 2.593397745463e+005 2.755889627189e+005 2.387742968337e+005 0.000000000000e+000 0.000000000000e+000 3.515465669702e+005 2.275789948955e+005 2.938615855546e+005 2.789754629467e+005 2.596074375945e+005 2.433567062418e+005 2.280218942349e+005 2.206164373311e+005 2.450130348661e+005 2.820723698960e+005 2.656772729805e+005 2.982595970591e+005 0.000000000000e+000 0.000000000000e+000 1.029606601431e+005 1.939290729891e+005 1.579419675483e+005 3.550578995625e+005 3.443802696903e+005 3.326983743645e+005 3.253581042500e+005 3.613129882648e+005 0.000000000000e+000 3.780494155232e+005 2.281670348491e+005 2.386420320624e+005 2.592386376876e+005 2.780094215626e+005 2.931687285945e+005 1.581972186506e+004 0.000000000000e+000 3.506435714664e+005 7.376196191580e+004 1.444112259876e+005 1.866082931387e+005 3.483403792590e+005 3.350042545467e+005 3.154641698126e+005 0.000000000000e+000 3.183657226818e+005 0.000000000000e+000 2.237724169531e+005 2.205153586539e+005 2.448117062317e+005 2.653363208308e+005 2.818296633776e+005 2.979427819847e+005 0.000000000000e+000 0.000000000000e+000 1.043598092598e+005 1.617817280136e+005 1.934857688203e+005 3.442721987970e+005 1.940557009798e+005 2.819446706288e+005 2.632933873395e+005 2.448617350618e+005 1.580760937117e+005 1.030956725976e+005 3.326369275902e+005 0.000000000000e+000 3.443362856368e+005 0.000000000000e+000 3.550624472323e+005 3.694873771602e+005 0.000000000000e+000 3.546695706577e+005 0.000000000000e+000 2.789147449644e+005 2.439806981444e+005 2.623016029986e+005 2.943096018523e+005 3.443050224153e+005 9.385440967746e+004 3.326192690732e+005 1.537956851990e+005 1.902373662851e+005 2.240276881438e+005 3.779583263976e+005 0.000000000000e+000 3.854867998347e+005 0.000000000000e+000 0.000000000000e+000 0.000000000000e+000 3.185248313866e+005 3.116818825082e+005 3.649711649111e+005 3.549998571548e+005 0.000000000000e+000 3.775656837475e+005 0.000000000000e+000 0.000000000000e+000 3.610855402576e+005 2.053152468193e+005 1.726072496520e+005 3.286565571200e+005 1.266228011903e+005 3.415595628352e+005 2.517873192409e+005 2.689626494852e+005 2.856882543546e+005 2.130631311120e+005 0.000000000000e+000 3.576744969418e+005 0.000000000000e+000 3.260628193932e+005 3.055909791283e+005 3.187669473937e+005 3.736386184499e+005 3.758003709438e+005 0.000000000000e+000 3.820850289323e+005 0.000000000000e+000 3.820858114804e+005 2.978176718011e+005 3.329031207636e+005 3.011028833543e+005 3.715221648199e+005 0.000000000000e+000 3.822856253138e+005 3.217627861656e+005 3.111152494428e+005 3.188697097677e+005 3.649942380350e+005 3.735369552610e+005 3.693324009387e+005 3.290686766696e+005 3.735430338893e+005 3.673363027586e+005 3.186724278564e+005 3.759137535550e+005 3.737255386913e+005 3.153641796628e+005 3.247341247291e+005 3.109374105063e+005 3.214812075456e+005 0.000000000000e+000 3.798488220148e+005 3.575385003333e+005 2.202224723090e+005 2.121681241294e+005 0.000000000000e+000 0.000000000000e+000 0.000000000000e+000 0.000000000000e+000 1.231976069098e+005 1.725524917985e+005 3.415755234760e+005 1.975412847988e+005 2.047037050866e+005 2.986826570810e+005 3.012273511495e+005 2.849188989103e+005 2.892690403660e+005 2.699851617983e+005 2.658443627039e+005 2.482740653324e+005 2.523318154194e+005 3.801100894821e+005 0.000000000000e+000 0.000000000000e+000 0.000000000000e+000 0.000000000000e+000 3.823983110187e+005 0.000000000000e+000 2.392131917256e+005 2.594070376131e+005 2.787823712564e+005 2.930941293003e+005 2.277462639713e+005 2.160033542334e+005 2.019071940515e+005 1.690923437980e+005 3.288365115817e+005 1.175463951506e+005 3.421001013820e+005 0.000000000000e+000 3.515147295780e+005 0.000000000000e+000 0.000000000000e+000 0.000000000000e+000 0.000000000000e+000 1.175680978742e+005 1.69091