<?xml version="1.0"?>
<VTKFile type="UnstructuredGrid" version="0.1" byte_order="LittleEndian">
  <UnstructuredGrid>
    <Piece NumberOfPoints="206" NumberOfCells="326">
      <Points>
        <DataArray type="Float64" NumberOfComponents="3" format="ascii">
          1.897435897436e+002 0.000000000000e+000 0.000000000000e+000
          1.931791020913e+002 4.394475469951e+000 0.000000000000e+000
          1.948717948718e+002 0.000000000000e+000 0.000000000000e+000
          5.880459463038e+000 1.099154902703e+001 0.000000000000e+000
          0.000000000000e+000 6.666666666655e+000 0.000000000000e+000
          0.000000000000e+000 1.333333333332e+001 0.000000000000e+000
          2.022497621136e+001 4.353446977749e+000 0.000000000000e+000
          2.051282051291e+001 0.000000000000e+000 0.000000000000e+000
          1.538461538468e+001 0.000000000000e+000 0.000000000000e+000
          1.711973192023e+001 9.822643375701e+000 0.000000000000e+000
          2.235754985755e+001 9.965277777778e+000 0.000000000000e+000
          1.342973104686e+001 5.024912353671e+000 0.000000000000e+000
          2.051282051273e+001 2.000000000000e+001 0.000000000000e+000
          1.990430525733e+001 1.515950912857e+001 0.000000000000e+000
          1.538461538455e+001 2.000000000000e+001 0.000000000000e+000
          1.275415082211e+002 1.500000000000e+001 0.000000000000e+000
          1.305226984145e+002 1.000000000000e+001 0.000000000000e+000
          1.266144349478e+002 1.000000000000e+001 0.000000000000e+000
          1.320283396971e+002 1.500000000000e+001 0.000000000000e+000
          1.275415082214e+002 5.000000000000e+000 0.000000000000e+000
          1.320283396974e+002 5.000000000000e+000 0.000000000000e+000
          2.662324775127e+001 5.694754464286e+000 0.000000000000e+000
          2.617521367521e+001 1.000000000000e+001 0.000000000000e+000
          2.532894973587e+001 1.397776144540e+001 0.000000000000e+000
          1.184289081109e+002 1.400000000000e+001 0.000000000000e+000
          1.217390520306e+002 1.000000000000e+001 0.000000000000e+000
          1.150696490874e+002 1.000602607727e+001 0.000000000000e+000
          1.222794923522e+002 1.500000000000e+001 0.000000000000e+000
          1.184289081111e+002 6.000000000000e+000 0.000000000000e+000
          1.222794923525e+002 5.000000000000e+000 0.000000000000e+000
          1.647570346228e+002 1.499982920203e+001 0.000000000000e+000
          1.610766879766e+002 9.999898274740e+000 0.000000000000e+000
          1.584898332400e+002 1.571424274568e+001 0.000000000000e+000
          7.586604251621e+001 5.621173932933e+000 0.000000000000e+000
          8.021655268624e+001 1.019499276048e+001 0.000000000000e+000
          8.189146271784e+001 4.117034117006e+000 0.000000000000e+000
          7.588302713352e+001 1.447660101075e+001 0.000000000000e+000
          8.201035504047e+001 1.604351572524e+001 0.000000000000e+000
          1.647575611852e+002 4.999583052019e+000 0.000000000000e+000
          1.589293847822e+002 4.146609780286e+000 0.000000000000e+000
          1.641025641024e+002 2.000000000000e+001 0.000000000000e+000
          1.692307692306e+002 2.000000000000e+001 0.000000000000e+000
          1.660230030600e+002 1.000000000000e+001 0.000000000000e+000
          1.697917692894e+002 1.499909577546e+001 0.000000000000e+000
          1.641025641028e+002 0.000000000000e+000 0.000000000000e+000
          1.692307692309e+002 0.000000000000e+000 0.000000000000e+000
          1.697948641857e+002 4.997649016204e+000 0.000000000000e+000
          1.743589743588e+002 2.000000000000e+001 0.000000000000e+000
          1.710911944708e+002 1.000000000000e+001 0.000000000000e+000
          1.749412615107e+002 1.499457465278e+001 0.000000000000e+000
          1.743589743591e+002 0.000000000000e+000 0.000000000000e+000
          1.749598308881e+002 4.985894097222e+000 0.000000000000e+000
          1.794871794871e+002 2.000000000000e+001 0.000000000000e+000
          1.769615825547e+002 9.964192708333e+000 0.000000000000e+000
          1.806150388551e+002 1.469347696151e+001 0.000000000000e+000
          1.794871794873e+002 0.000000000000e+000 0.000000000000e+000
          1.803838168879e+002 4.953657234265e+000 0.000000000000e+000
          1.846153846153e+002 2.000000000000e+001 0.000000000000e+000
          1.846153846155e+002 0.000000000000e+000 0.000000000000e+000
          1.858160403609e+002 4.891281862002e+000 0.000000000000e+000
          1.487179487182e+002 0.000000000000e+000 0.000000000000e+000
          1.505413635482e+002 5.088785165962e+000 0.000000000000e+000
          1.538461538464e+002 0.000000000000e+000 0.000000000000e+000
          5.128205128183e+001 2.000000000000e+001 0.000000000000e+000
          4.937524205543e+001 1.478507223003e+001 0.000000000000e+000
          4.615384615364e+001 2.000000000000e+001 0.000000000000e+000
          4.335527308620e+001 1.560308717176e+001 0.000000000000e+000
          4.102564102546e+001 2.000000000000e+001 0.000000000000e+000
          4.429011235569e+001 1.011123788964e+001 0.000000000000e+000
          3.589743589728e+001 2.000000000000e+001 0.000000000000e+000
          3.424338337179e+001 1.480928422469e+001 0.000000000000e+000
          3.076923076909e+001 2.000000000000e+001 0.000000000000e+000
          3.005689385761e+001 1.060364436599e+001 0.000000000000e+000
          6.153846153820e+001 2.000000000000e+001 0.000000000000e+000
          5.861144803786e+001 1.567337793620e+001 0.000000000000e+000
          5.641025641001e+001 2.000000000000e+001 0.000000000000e+000
          6.364098538444e+001 1.500000000000e+001 0.000000000000e+000
          5.989457932650e+001 1.030421617259e+001 0.000000000000e+000
          6.666666666639e+001 2.000000000000e+001 0.000000000000e+000
          6.863961921157e+001 1.499549437831e+001 0.000000000000e+000
          6.567188823475e+001 9.930555555556e+000 0.000000000000e+000
          8.717948717914e+001 2.000000000000e+001 0.000000000000e+000
          8.205128205096e+001 2.000000000000e+001 0.000000000000e+000
          8.825660559227e+001 1.457690124438e+001 0.000000000000e+000
          9.230769230733e+001 2.000000000000e+001 0.000000000000e+000
          8.616129659787e+001 8.733480538898e+000 0.000000000000e+000
          9.150074733547e+001 1.030748155382e+001 0.000000000000e+000
          1.384615384618e+002 0.000000000000e+000 0.000000000000e+000
          1.415932379237e+002 4.335026874129e+000 0.000000000000e+000
          1.435897435900e+002 0.000000000000e+000 0.000000000000e+000
          1.370080938287e+002 5.069444256391e+000 0.000000000000e+000
          1.404454238813e+002 9.718036725159e+000 0.000000000000e+000
          1.333333333336e+002 0.000000000000e+000 0.000000000000e+000
          1.076923076927e+002 0.000000000000e+000 0.000000000000e+000
          1.108991862601e+002 4.857696974887e+000 0.000000000000e+000
          1.128205128209e+002 0.000000000000e+000 0.000000000000e+000
          1.230769230773e+002 0.000000000000e+000 0.000000000000e+000
          1.282051282055e+002 0.000000000000e+000 0.000000000000e+000
          1.421648412768e+002 1.518915604417e+001 0.000000000000e+000
          1.384615384612e+002 2.000000000000e+001 0.000000000000e+000
          1.435897435894e+002 2.000000000000e+001 0.000000000000e+000
          1.370080938284e+002 1.506944425639e+001 0.000000000000e+000
          1.333333333330e+002 2.000000000000e+001 0.000000000000e+000
          1.230769230766e+002 2.000000000000e+001 0.000000000000e+000
          1.282051282048e+002 2.000000000000e+001 0.000000000000e+000
          1.106262295343e+002 1.449114286029e+001 0.000000000000e+000
          1.076923076919e+002 2.000000000000e+001 0.000000000000e+000
          1.128205128202e+002 2.000000000000e+001 0.000000000000e+000
          1.060408540078e+002 1.575486111111e+001 0.000000000000e+000
          5.803874767782e+001 4.824157678094e+000 0.000000000000e+000
          6.153846153872e+001 0.000000000000e+000 0.000000000000e+000
          5.641025641050e+001 0.000000000000e+000 0.000000000000e+000
          6.364098538470e+001 5.000000000000e+000 0.000000000000e+000
          6.666666666694e+001 0.000000000000e+000 0.000000000000e+000
          6.863961921185e+001 4.974991732804e+000 0.000000000000e+000
          9.032615013277e+001 4.937074209742e+000 0.000000000000e+000
          9.230769230805e+001 0.000000000000e+000 0.000000000000e+000
          8.717948717983e+001 0.000000000000e+000 0.000000000000e+000
          1.524809577360e+002 1.505950683102e+001 0.000000000000e+000
          1.487179487177e+002 2.000000000000e+001 0.000000000000e+000
          1.538461538459e+002 2.000000000000e+001 0.000000000000e+000
          1.472187406962e+002 1.523528621385e+001 0.000000000000e+000
          4.767577943456e+001 4.990079365079e+000 0.000000000000e+000
          5.128205128227e+001 0.000000000000e+000 0.000000000000e+000
          4.615384615405e+001 0.000000000000e+000 0.000000000000e+000
          5.289188460113e+001 4.768994659147e+000 0.000000000000e+000
          4.250523169876e+001 4.799709939732e+000 0.000000000000e+000
          4.102564102582e+001 0.000000000000e+000 0.000000000000e+000
          3.076923076937e+001 0.000000000000e+000 0.000000000000e+000
          2.564102564114e+001 0.000000000000e+000 0.000000000000e+000
          3.231012230340e+001 5.174437830688e+000 0.000000000000e+000
          3.589743589759e+001 0.000000000000e+000 0.000000000000e+000
          3.747197445908e+001 4.807502868680e+000 0.000000000000e+000
          1.589743589741e+002 2.000000000000e+001 0.000000000000e+000
          1.551353134763e+002 9.374350718944e+000 0.000000000000e+000
          7.179487179516e+001 0.000000000000e+000 0.000000000000e+000
          7.179487179458e+001 2.000000000000e+001 0.000000000000e+000
          1.179487179484e+002 2.000000000000e+001 0.000000000000e+000
          1.179487179491e+002 0.000000000000e+000 0.000000000000e+000
[...]
      <PointData Scalars="Capillary_Pressure">
        <DataArray type="Float64" Name="Capillary_Pressure" format="ascii">
          0.000000000000e+000 0.000000000000e+000 0.000000000000e+000 3.800043674916e+005 3.857001965462e+005 3.856643823576e+005 3.670238458316e+005 3.670012453005e+005 3.717024779487e+005 3.706275399588e+005 3.646443007097e+005 3.737649827955e+005 3.670417457926e+005 3.671127488600e+005 3.717523209131e+005 2.105548533364e+005 2.008614433010e+005 2.106191647050e+005 1.956320775931e+005 2.105524006461e+005 1.956244888146e+005 3.620610124329e+005 3.617146812838e+005 3.623940702511e+005 2.307400247031e+005 2.233508335778e+005 2.368825032909e+005 2.235609710195e+005 2.307467274301e+005 2.235620917783e+005 0.000000000000e+000 1.183750083809e+004 5.823584063806e+004 3.028936670306e+005 2.967626117632e+005 2.961916325262e+005 3.028904243545e+005 2.961418440205e+005 0.000000000000e+000 5.132045578383e+004 0.000000000000e+000 0.000000000000e+000 0.000000000000e+000 0.000000000000e+000 0.000000000000e+000 0.000000000000e+000 0.000000000000e+000 0.000000000000e+000 0.000000000000e+000 0.000000000000e+000 0.000000000000e+000 0.000000000000e+000 0.000000000000e+000 0.000000000000e+000 0.000000000000e+000 0.000000000000e+000 0.000000000000e+000 0.000000000000e+000 0.000000000000e+000 0.000000000000e+000 1.335433085852e+005 1.229466292371e+005 1.064616406879e+005 3.356358219847e+005 3.362900546552e+005 3.401883712143e+005 3.429169916493e+005 3.455088559871e+005 3.425938085756e+005 3.525663193844e+005 3.529856169850e+005 3.577776219706e+005 3.578210547285e+005 3.222147774178e+005 3.253966060681e+005 3.281235495531e+005 3.193211664018e+005 3.250422712490e+005 3.158533033580e+005 3.131776033435e+005 3.165842518093e+005 2.874397653316e+005 2.961158286490e+005 2.850394004153e+005 2.808873677670e+005 2.884283469108e+005 2.813381821633e+005 1.755761353492e+005 1.647959584822e+005 1.563758640415e+005 1.806710501033e+005 1.683615717962e+005 1.920090057565e+005 2.518781092400e+005 2.476762921505e+005 2.420589891387e+005 2.199554441893e+005 2.068813693807e+005 1.651365722762e+005 1.755932778995e+005 1.563778923308e+005 1.806917699572e+005 1.920182587408e+005 2.199554184719e+005 2.068848882350e+005 2.470792159596e+005 2.518801075307e+005 2.420642401736e+005 2.567308019864e+005 3.276801979393e+005 3.221871150632e+005 3.281075723824e+005 3.192882034741e+005 3.158343950183e+005 3.131642420345e+005 2.817889639227e+005 2.809123303921e+005 2.881113690019e+005 1.144188381892e+005 1.336376975037e+005 1.020933248349e+005 1.412599150348e+005 3.396758621549e+005 3.355922546927e+005 3.401632317281e+005 3.322596641943e+005 3.445167878891e+005 3.454953426274e+005 3.576957926115e+005 3.622839875940e+005 3.553386240097e+005 3.524965200397e+005 3.493389747693e+005 4.947022698101e+004 9.649202309272e+004 3.087712654718e+005 3.087800877112e+005 2.311867826531e+005 2.311914717703e+005 3.776383036733e+005 3.789517231459e+005 0.000000000000e+000 0.000000000000e+000 0.000000000000e+000 2.369539672950e+005 2.369264373746e+005 0.000000000000e+000 2.764919928618e+005 2.758620735196e+005 2.724762288632e+005 2.694015306173e+005 2.620337117600e+005 2.724790835334e+005 2.688515901504e+005 2.620375770425e+005 2.961348664448e+005 3.022584453616e+005 3.022603609467e+005 4.889225902454e+004 0.000000000000e+000 3.811260674721e+005 0.000000000000e+000 0.000000000000e+000 2.620776312045e+005 2.653046034275e+005 3.353661814596e+005 2.729296436608e+005 1.880061247280e+005 2.569489068256e+005 1.291126817042e+005 3.522252961248e+005 2.660394215441e+005 2.763709340877e+005 2.562947943262e+005 0.000000000000e+000 0.000000000000e+000 3.087458753935e+005 0.000000000000e+000 3.086621798750e+005 3.086545765911e+005 3.727882978867e+005 2.883521730680e+005 2.482950452339e+005 3.750093604152e+005 3.769931022336e+005 1.479803792428e+005 3.487444922984e+005 3.315986509676e+005 3.484720063486e+005 1.487727365246e+005 3.313033852878e+005 3.644722274608e+005 3.623038936889e+005 1.509886969757e+005 3.293846657598e+005 3.467154195426e+005 2.916964535843e+005 3.769444414684e+005 3.811292588204e+005 3.811674386827e+005 3.028543543553e+005 9.889813371443e+004 3.580684490076e+005 3.856615422579e+005 3.856391350484e+005 0.000000000000e+000 
        </DataArray>
        <DataArray type="Float64" Name="Gas_Pressure" format="ascii">
          1.000000000000e+006 1.000000000000e+006 1.000000000000e+006 1.000000000000e+006 1.000000000000e+006 1.000000000000e+006 1.000000000000e+006 1.000000000000e+006 1.000000000000e+006 1.000000000000e+006 1.000000000000e+006 1.000000000000e+006 1.000000000000e+006 1.000000000000e+006 1.000000000000e+006 1.000000000000e+006 1.000000000000e+006 1.000000000000e+006 1.000000000000e+006 1.000000000000e+006 1.000000000000e+006 1.000000000000e+006 1.000000000000e+006 1.000000000000e+006 1.000000000000e+006 1.000000000000e+006 1.000000000000e+006 1.000000000000e+006 1.000000000000e+006 1.000000000000e+006 1.000000000000e+006 1.000000000000e+006 1.000000000000e+006 1.000000000000e+006 1.000000000000e+006 1.000000000000e+006 1.000000000000e+006 1.000000000000e+006 1.000000000000e+006 1.000000000000e+006 1.000000000000e+006 1.000000000000e+006 1.000000000000e+006 1.000000000000e+006 1.000000000000e+006 1.000000000000e+006 1.000000000000e+006 1.000000000000e+006 1.000000000000e+006 1.000000000000e+006 1.000000000000e+006 1.000000000000e+006 1.000000000000e+006 1.000000000000e+006 1.000000000000e+006 1.000000000000e+006 1.000000000000e+006 1.000000000000e+006 1.000000000000e+006 1.000000000000e+006 1.000000000000e+006 1.000000000000e+006 1.000000000000e+006 1.000000000000e+006 1.000000000000e+006 1.000000000000e+006 1.000000000000e+006 1.000000000000e+006 1.000000000000e+006 1.000000000000e+006 1.000000000000e+006 1.000000000000e+006 1.000000000000e+006 1.000000000000e+006 1.000000000000e+006 1.000000000000e+006 1.000000000000e+006 1.000000000000e+006 1.000000000000e+006 1.000000000000e+006 1.000000000000e+006 1.000000000000e+006 1.000000000000e+006 1.000000000000e+006 1.000000000000e+006 1.000000000000e+006 1.000000000000e+006 1.000000000000e+006 1.000000000000e+006 1.000000000000e+006 1.000000000000e+006 1.000000000000e+006 1.000000000000e+006 1.000000000000e+006 1.000000000000e+006 1.000000000000e+006 1.000000000000e+006 1.000000000000e+006 1.000000000000e+006 1.000000000000e+006 1.000000000000e+006 1.000000000000e+006 1.000000000000e+006 1.000000000000e+006 1.000000000000e+006 1.000000000000e+006 1.000000000000e+006 1.000000000000e+006 1.000000000000e+006 1.000000000000e+006 1.000000000000e+006 1.000000000000e+006 1.000000000000e+006 1.000000000000e+006 1.000000000000e+006 1.000000000000e+006 1.000000000000e+006 1.000000000000e+006 1.000000000000e+006 1.000000000000e+006 1.000000000000e+006 1.000000000000e+006 1.000000000000e+006 1.000000000000e+006 1.000000000000e+006 1.000000000000e+006 1.000000000000e+006 1.000000000000e+006 1.000000000000e+006 1.000000000000e+006 1.000000000000e+006 1.000000000000e+006 1.000000000000e+006 1.000000000000e+006 1.000000000000e+006 1.000000000000e+006 1.000000000000e+006 1.000000000000e+006 1.000000000000e+006 1.000000000000e+006 1.000000000000e+006 1.000000000000e+006 1.000000000000e+006 1.000000000000e+006 1.000000000000e+006 1.000000000000e+006 1.000000000000e+006 1.000000000000e+006 1.000000000000e+006 1.000000000000e+006 1.000000000000e+006 1.000000000000e+006 1.000000000000e+006 1.000000000000e+006 1.000000000000e+006 1.000000000000e+006 1.000000000000e+006 1.000000000000e+006 1.000000000000e+006 1.000000000000e+006 1.000000000000e+006 1.000000000000e+006 1.000000000000e+006 1.000000000000e+006 1.000000000000e+006 1.000000000000e+006 1.000000000000e+006 1.000000000000e+006 1.000000000000e+006 1.000000000000e+006 1.000000000000e+006 1.000000000000e+006 1.000000000000e+006 1.000000000000e+006 1.000000000000e+006 1.000000000000e+006 1.000000000000e+006 1.000000000000e+006 1.000000000000e+006 1.000000000000e+006 1.000000000000e+006 1.000000000000e+006 1.000000000000e+006 1.000000000000e+006 1.000000000000e+006 1.000000000000e+006 1.000000000000e+006 1.000000000000e+006 1.000000000000e+006 1.000000000000e+006 1.000000000000e+006 1.000000000000e+006 1.000000000000e+006 1.000000000000e+006 1.000000000000e+006 1.000000000000e+006 1.000000000000e+006 1.000000000000e+006 1.000000000000e+006 1.000000000000e+006 1.000000000000e+006 1.000000000000e+006 1.000000000000e+006 1.000000000000e+006 1.000000000000e+006 1.000000000000e+006 
        </DataArray>
        <DataArray type="Float64" Name="LIQUID_PRESSURE" format="ascii">
          1.000033486818e+006 1.000022258081e+006 1.000016737013e+006 1.000328663464e+006 1.000327171179e+006 1.000327474296e+006 1.000314348647e+006 1.000311354503e+006 1.000316986768e+006 1.000309723211e+006 1.000315943569e+006 1.000315890894e+006 1.000310941767e+006 1.000316850112e+006 1.000316465292e+006 1.000208157437e+006 1.000208875391e+006 1.000215745725e+006 1.000209133324e+006 1.000208148265e+006 1.000209123350e+006 1.000296396038e+006 1.000304642953e+006 1.000306909713e+006 1.000223783511e+006 1.000219407199e+006 1.000231794069e+006 1.000214240554e+006 1.000223741136e+006 1.000214223262e+006 1.000110936725e+006 1.000149317685e+006 1.000160055746e+006 1.000272705532e+006 1.000268693700e+006 1.000255829450e+006 1.000272572363e+006 1.000255074170e+006 1.000115055041e+006 1.000158301276e+006 1.000113939780e+006 1.000098716690e+006 1.000114138543e+006 1.000097462594e+006 1.000116978679e+006 1.000100657968e+006 1.000099047483e+006 1.000082938732e+006 1.000094918412e+006 1.000081351652e+006 1.000083909990e+006 1.000081963138e+006 1.000066610536e+006 1.000075226356e+006 1.000063083390e+006 1.000067067563e+006 1.000064103643e+006 1.000050048526e+006 1.000050257018e+006 1.000046308863e+006 1.000182224035e+006 1.000179273203e+006 1.000169519387e+006 1.000279578587e+006 1.000293960865e+006 1.000294254143e+006 1.000299715966e+006 1.000301114944e+006 1.000292807416e+006 1.000290190214e+006 1.000303867869e+006 1.000294635267e+006 1.000301817703e+006 1.000280966262e+006 1.000286495025e+006 1.000287745950e+006 1.000281230450e+006 1.000276155568e+006 1.000275924662e+006 1.000275130324e+006 1.000280715825e+006 1.000256453134e+006 1.000254710238e+006 1.000259732065e+006 1.000243846670e+006 1.000260681691e+006 1.000249080046e+006 1.000199629082e+006 1.000194030179e+006 1.000191760063e+006 1.000201352148e+006 1.000197077899e+006 1.000206857172e+006 1.000239323118e+006 1.000227653583e+006 1.000232416233e+006 1.000218576476e+006 1.000212568404e+006 1.000189272835e+006 1.000199639495e+006 1.000191728170e+006 1.000201377491e+006 1.000206866837e+006 1.000218593877e+006 1.000212579652e+006 1.000232456747e+006 1.000239281246e+006 1.000232382319e+006 1.000233557949e+006 1.000274545160e+006 1.000281158180e+006 1.000287878989e+006 1.000281476201e+006 1.000276053201e+006 1.000275221287e+006 1.000257833648e+006 1.000243685290e+006 1.000252589463e+006 1.000172925122e+006 1.000182160925e+006 1.000171466194e+006 1.000184521351e+006 1.000282776807e+006 1.000279925191e+006 1.000294505456e+006 1.000290808656e+006 1.000294475892e+006 1.000301266742e+006 1.000295420253e+006 1.000304679292e+006 1.000301908340e+006 1.000290868426e+006 1.000303739794e+006 1.000158460021e+006 1.000166874916e+006 1.000274070463e+006 1.000274012825e+006 1.000226544379e+006 1.000226505924e+006 1.000307479207e+006 1.000320950869e+006 1.000054934552e+006 1.000037474064e+006 1.000021812622e+006 1.000231100098e+006 1.000231240135e+006 1.000041811068e+006 1.000251626450e+006 1.000250692098e+006 1.000239311215e+006 1.000245479996e+006 1.000241771570e+006 1.000239282814e+006 1.000245317886e+006 1.000241702677e+006 1.000254690807e+006 1.000266470292e+006 1.000266456979e+006 1.000158323200e+006 1.000033394861e+006 1.000324046457e+006 1.000018955412e+006 1.000000000000e+006 1.000241645698e+006 1.000242892341e+006 1.000290410436e+006 1.000247752398e+006 1.000204482701e+006 1.000239313056e+006 1.000179978199e+006 1.000301635308e+006 1.000244528141e+006 1.000245837787e+006 1.000237781199e+006 1.000016704977e+006 1.000000000000e+006 1.000273716202e+006 1.000000000000e+006 1.000271868638e+006 1.000271915257e+006 1.000320395231e+006 1.000259391528e+006 1.000237269381e+006 1.000324748132e+006 1.000318293047e+006 1.000188319773e+006 1.000291304831e+006 1.000278359792e+006 1.000299413373e+006 1.000183463638e+006 1.000286488093e+006 1.000309522124e+006 1.000304467768e+006 1.000188517579e+006 1.000290418771e+006 1.000304097737e+006 1.000261956389e+006 1.000315297218e+006 1.000323214234e+006 1.000323500334e+006 1.000271970844e+006 1.000168238939e+006 1.000308464005e+006 1.000327512926e+006 1.000327716460e+006 1.000000000000e+006 
        </DataArray>
        <DataArray type="Float64" Name="MOLAR_FRACTION" format="ascii">
          2.111308441710e-005 1.437610773716e-005 1.105665676307e-005 1.092119980804e-004 1.089204509736e-004 1.089788528858e-004 1.068310129112e-004 1.062901910572e-004 1.072225062840e-004 1.059255683009e-004 1.071784043090e-004 1.069898747357e-004 1.062150598804e-004 1.072852135572e-004 1.071271034504e-004 9.201397701684e-005 9.251817300373e-005 9.380268830526e-005 9.275741798984e-005 9.201313042424e-005 9.275722600261e-005 1.036742022584e-004 1.051915082573e-004 1.055899682320e-004 9.484661018371e-005 9.415763376465e-005 9.640165349057e-005 9.295247703490e-005 9.483833363429e-005 9.294949792465e-005 7.009962426120e-005 7.742578200843e-005 8.103025271734e-005 1.016534339386e-004 1.011758571299e-004 9.861612844633e-005 1.016268421808e-004 9.846597878112e-005 7.008572251344e-005 8.052404631136e-005 7.142686755977e-005 6.134679446597e-005 6.764727936311e-005 6.024029838357e-005 7.138251968902e-005 6.133047093263e-005 6.022621132801e-005 5.128568501288e-005 5.769363455469e-005 5.014246804542e-005 5.127883631972e-005 5.010207709000e-005 4.122771011593e-005 4.617935610731e-005 3.901538583332e-005 4.122468293472e-005 3.946710470302e-005 3.117056046035e-005 3.116920983806e-005 2.881503311708e-005 8.726178783999e-005 8.658798712033e-005 8.401189303284e-005 1.014296037867e-004 1.041232411888e-004 1.040116367202e-004 1.049287604883e-004 1.050878790377e-004 1.036430175053e-004 1.028048579230e-004 1.053175662533e-004 1.034632616551e-004 1.047866751713e-004 1.022989393448e-004 1.032122331055e-004 1.033228942097e-004 1.024927062473e-004 1.012401840179e-004 1.016300696317e-004 1.016072459353e-004 1.025318489942e-004 9.918679436153e-005 9.839204210003e-005 9.998325589052e-005 9.691866965663e-005 9.999846169328e-005 9.798069070396e-005 9.099175587523e-005 8.981647725852e-005 8.941622677903e-005 9.128539991246e-005 9.053209048363e-005 9.231684399365e-005 9.736837167381e-005 9.500660573695e-005 9.630970252707e-005 9.410238731642e-005 9.319489559464e-005 8.856508678727e-005 9.099052236821e-005 8.942904951558e-005 9.128595657348e-005 9.231638546534e-005 9.410501046061e-005 9.319583401426e-005 9.609453078135e-005 9.736454466086e-005 9.630153522125e-005 9.589282394095e-005 1.008097119577e-004 1.023408159811e-004 1.033460076670e-004 1.025447856625e-004 1.016586283905e-004 1.016270083923e-004 9.976301917140e-005 9.688415674333e-005 9.836418457540e-005 8.488388919452e-005 8.723000842397e-005 8.465766340199e-005 8.778747422594e-005 1.018709299785e-004 1.015008998608e-004 1.040566902696e-004 1.037130089231e-004 1.038781781061e-004 1.051122539746e-004 1.036140992021e-004 1.051813479649e-004 1.048820726598e-004 1.029337095611e-004 1.054282299685e-004 8.036870836405e-005 8.329766429173e-005 1.016198169134e-004 1.016072675773e-004 9.546404130410e-005 9.545727324165e-005 1.054340707282e-004 1.078392306439e-004 3.402541896186e-005 2.352891621979e-005 1.411854816299e-005 9.624184651146e-005 9.627183165402e-005 2.616991797579e-005 9.875475199502e-005 9.859397116294e-005 9.638340562330e-005 9.783056776499e-005 9.741105060053e-005 9.637652182065e-005 9.782664738705e-005 9.739778013554e-005 9.838603783070e-005 1.004410266684e-004 1.004379875623e-004 8.034163163624e-005 2.111367459704e-005 1.083751805521e-004 1.240987728455e-005 1.000000000000e-006 9.737541956974e-005 9.748577775306e-005 1.034958669593e-004 9.812994462404e-005 9.185485411134e-005 9.712621339362e-005 8.669863241698e-005 1.049341541368e-004 9.779851468207e-005 9.755664684231e-005 9.682784320620e-005 1.105685109971e-005 1.000000000000e-006 1.015538399676e-004 1.000000000000e-006 1.011942448817e-004 1.012044683417e-004 1.078180976601e-004 9.974231520406e-005 9.709269544121e-005 1.085652795428e-004 1.073851992757e-004 8.869524230178e-005 1.031355209096e-004 1.013683560803e-004 1.046564897865e-004 8.734394915869e-005 1.029323195266e-004 1.060129170758e-004 1.051450541106e-004 8.867503671112e-005 1.037663907549e-004 1.055904561394e-004 1.000873616750e-004 1.068459464408e-004 1.082307104355e-004 1.082826050616e-004 1.015141533626e-004 8.354486343051e-005 1.059978886955e-004 1.089840947100e-004 1.090202740992e-004 1.000000000000e-006 
        </DataArray>
        <DataArray type="Float64" Name="SATURATION" format="ascii">