<?xml version="1.0"?>
<VTKFile type="UnstructuredGrid" version="0.1" byte_order="LittleEndian">
  <UnstructuredGrid>
    <Piece NumberOfPoints="2604" NumberOfCells="4910">
      <Points>
        <DataArray type="Float64" NumberOfComponents="3" format="ascii">
          0.000000000000e+000 0.000000000000e+000 0.000000000000e+000
          2.000000000000e+002 0.000000000000e+000 0.000000000000e+000
          2.000000000000e+002 2.000000000000e+001 0.000000000000e+000
          0.000000000000e+000 2.000000000000e+001 0.000000000000e+000
          1.492537313427e+000 0.000000000000e+000 0.000000000000e+000
          2.985074626854e+000 0.000000000000e+000 0.000000000000e+000
          4.477611940281e+000 0.000000000000e+000 0.000000000000e+000
          5.970149253708e+000 0.000000000000e+000 0.000000000000e+000
          7.462686567135e+000 0.000000000000e+000 0.000000000000e+000
          8.955223880561e+000 0.000000000000e+000 0.000000000000e+000
          1.044776119399e+001 0.000000000000e+000 0.000000000000e+000
          1.194029850741e+001 0.000000000000e+000 0.000000000000e+000
          1.343283582084e+001 0.000000000000e+000 0.000000000000e+000
          1.492537313427e+001 0.000000000000e+000 0.000000000000e+000
          1.641791044770e+001 0.000000000000e+000 0.000000000000e+000
          1.791044776112e+001 0.000000000000e+000 0.000000000000e+000
          1.940298507455e+001 0.000000000000e+000 0.000000000000e+000
          2.089552238798e+001 0.000000000000e+000 0.000000000000e+000
          2.238805970141e+001 0.000000000000e+000 0.000000000000e+000
          2.388059701484e+001 0.000000000000e+000 0.000000000000e+000
          2.537313432826e+001 0.000000000000e+000 0.000000000000e+000
          2.686567164169e+001 0.000000000000e+000 0.000000000000e+000
          2.835820895511e+001 0.000000000000e+000 0.000000000000e+000
          2.985074626854e+001 0.000000000000e+000 0.000000000000e+000
          3.134328358196e+001 0.000000000000e+000 0.000000000000e+000
          3.283582089539e+001 0.000000000000e+000 0.000000000000e+000
          3.432835820881e+001 0.000000000000e+000 0.000000000000e+000
          3.582089552224e+001 0.000000000000e+000 0.000000000000e+000
          3.731343283566e+001 0.000000000000e+000 0.000000000000e+000
          3.880597014909e+001 0.000000000000e+000 0.000000000000e+000
          4.029850746251e+001 0.000000000000e+000 0.000000000000e+000
          4.179104477594e+001 0.000000000000e+000 0.000000000000e+000
          4.328358208936e+001 0.000000000000e+000 0.000000000000e+000
          4.477611940279e+001 0.000000000000e+000 0.000000000000e+000
          4.626865671621e+001 0.000000000000e+000 0.000000000000e+000
          4.776119402964e+001 0.000000000000e+000 0.000000000000e+000
          4.925373134306e+001 0.000000000000e+000 0.000000000000e+000
          5.074626865649e+001 0.000000000000e+000 0.000000000000e+000
          5.223880596991e+001 0.000000000000e+000 0.000000000000e+000
          5.373134328334e+001 0.000000000000e+000 0.000000000000e+000
          5.522388059676e+001 0.000000000000e+000 0.000000000000e+000
          5.671641791019e+001 0.000000000000e+000 0.000000000000e+000
          5.820895522361e+001 0.000000000000e+000 0.000000000000e+000
          5.970149253704e+001 0.000000000000e+000 0.000000000000e+000
          6.119402985046e+001 0.000000000000e+000 0.000000000000e+000
          6.268656716389e+001 0.000000000000e+000 0.000000000000e+000
          6.417910447732e+001 0.000000000000e+000 0.000000000000e+000
          6.567164179075e+001 0.000000000000e+000 0.000000000000e+000
          6.716417910418e+001 0.000000000000e+000 0.000000000000e+000
          6.865671641761e+001 0.000000000000e+000 0.000000000000e+000
          7.014925373104e+001 0.000000000000e+000 0.000000000000e+000
          7.164179104447e+001 0.000000000000e+000 0.000000000000e+000
          7.313432835790e+001 0.000000000000e+000 0.000000000000e+000
          7.462686567133e+001 0.000000000000e+000 0.000000000000e+000
          7.611940298476e+001 0.000000000000e+000 0.000000000000e+000
          7.761194029819e+001 0.000000000000e+000 0.000000000000e+000
          7.910447761162e+001 0.000000000000e+000 0.000000000000e+000
          8.059701492505e+001 0.000000000000e+000 0.000000000000e+000
          8.208955223848e+001 0.000000000000e+000 0.000000000000e+000
          8.358208955191e+001 0.000000000000e+000 0.000000000000e+000
          8.507462686534e+001 0.000000000000e+000 0.000000000000e+000
          8.656716417877e+001 0.000000000000e+000 0.000000000000e+000
          8.805970149220e+001 0.000000000000e+000 0.000000000000e+000
          8.955223880563e+001 0.000000000000e+000 0.000000000000e+000
          9.104477611907e+001 0.000000000000e+000 0.000000000000e+000
          9.253731343250e+001 0.000000000000e+000 0.000000000000e+000
          9.402985074593e+001 0.000000000000e+000 0.000000000000e+000
          9.552238805936e+001 0.000000000000e+000 0.000000000000e+000
          9.701492537279e+001 0.000000000000e+000 0.000000000000e+000
          9.850746268622e+001 0.000000000000e+000 0.000000000000e+000
          9.999999999965e+001 0.000000000000e+000 0.000000000000e+000
          1.014925373131e+002 0.000000000000e+000 0.000000000000e+000
          1.029850746265e+002 0.000000000000e+000 0.000000000000e+000
          1.044776119399e+002 0.000000000000e+000 0.000000000000e+000
          1.059701492534e+002 0.000000000000e+000 0.000000000000e+000
          1.074626865668e+002 0.000000000000e+000 0.000000000000e+000
          1.089552238802e+002 0.000000000000e+000 0.000000000000e+000
          1.104477611937e+002 0.000000000000e+000 0.000000000000e+000
          1.119402985071e+002 0.000000000000e+000 0.000000000000e+000
          1.134328358205e+002 0.000000000000e+000 0.000000000000e+000
          1.149253731340e+002 0.000000000000e+000 0.000000000000e+000
          1.164179104474e+002 0.000000000000e+000 0.000000000000e+000
          1.179104477608e+002 0.000000000000e+000 0.000000000000e+000
          1.194029850742e+002 0.000000000000e+000 0.000000000000e+000
          1.208955223877e+002 0.000000000000e+000 0.000000000000e+000
          1.223880597011e+002 0.000000000000e+000 0.000000000000e+000
          1.238805970145e+002 0.000000000000e+000 0.000000000000e+000
          1.253731343280e+002 0.000000000000e+000 0.000000000000e+000
          1.268656716414e+002 0.000000000000e+000 0.000000000000e+000
          1.283582089548e+002 0.000000000000e+000 0.000000000000e+000
          1.298507462683e+002 0.000000000000e+000 0.000000000000e+000
          1.313432835817e+002 0.000000000000e+000 0.000000000000e+000
          1.328358208952e+002 0.000000000000e+000 0.000000000000e+000
          1.343283582086e+002 0.000000000000e+000 0.000000000000e+000
          1.358208955220e+002 0.000000000000e+000 0.000000000000e+000
          1.373134328355e+002 0.000000000000e+000 0.000000000000e+000
          1.388059701489e+002 0.000000000000e+000 0.000000000000e+000
          1.402985074624e+002 0.000000000000e+000 0.000000000000e+000
          1.417910447758e+002 0.000000000000e+000 0.000000000000e+000
          1.432835820892e+002 0.000000000000e+000 0.000000000000e+000
          1.447761194027e+002 0.000000000000e+000 0.000000000000e+000
          1.462686567161e+002 0.000000000000e+000 0.000000000000e+000
          1.477611940296e+002 0.000000000000e+000 0.000000000000e+000
          1.492537313430e+002 0.000000000000e+000 0.000000000000e+000
          1.507462686564e+002 0.000000000000e+000 0.000000000000e+000
          1.522388059699e+002 0.000000000000e+000 0.000000000000e+000
          1.537313432833e+002 0.000000000000e+000 0.000000000000e+000
          1.552238805968e+002 0.000000000000e+000 0.000000000000e+000
          1.567164179102e+002 0.000000000000e+000 0.000000000000e+000
          1.582089552237e+002 0.000000000000e+000 0.000000000000e+000
          1.597014925371e+002 0.000000000000e+000 0.000000000000e+000
          1.611940298505e+002 0.000000000000e+000 0.000000000000e+000
          1.626865671640e+002 0.000000000000e+000 0.000000000000e+000
          1.641791044774e+002 0.000000000000e+000 0.000000000000e+000
          1.656716417909e+002 0.000000000000e+000 0.000000000000e+000
          1.671641791043e+002 0.000000000000e+000 0.000000000000e+000
          1.686567164177e+002 0.000000000000e+000 0.000000000000e+000
          1.701492537312e+002 0.000000000000e+000 0.000000000000e+000
          1.716417910446e+002 0.000000000000e+000 0.000000000000e+000
          1.731343283581e+002 0.000000000000e+000 0.000000000000e+000
          1.746268656715e+002 0.000000000000e+000 0.000000000000e+000
          1.761194029849e+002 0.000000000000e+000 0.000000000000e+000
          1.776119402984e+002 0.000000000000e+000 0.000000000000e+000
          1.791044776118e+002 0.000000000000e+000 0.000000000000e+000
          1.805970149253e+002 0.000000000000e+000 0.000000000000e+000
          1.820895522387e+002 0.000000000000e+000 0.000000000000e+000
          1.835820895521e+002 0.000000000000e+000 0.000000000000e+000
          1.850746268656e+002 0.000000000000e+000 0.000000000000e+000
          1.865671641790e+002 0.000000000000e+000 0.000000000000e+000
          1.880597014925e+002 0.000000000000e+000 0.000000000000e+000
          1.895522388059e+002 0.000000000000e+000 0.000000000000e+000
          1.910447761194e+002 0.000000000000e+000 0.000000000000e+000
          1.925373134328e+002 0.000000000000e+000 0.000000000000e+000
          1.940298507462e+002 0.000000000000e+000 0.000000000000e+000
          1.955223880597e+002 0.000000000000e+000 0.000000000000e+000
          1.970149253731e+002 0.000000000000e+000 0.000000000000e+000
          1.985074626866e+002 0.000000000000e+000 0.000000000000e+000
          2.000000000000e+002 1.428571428570e+000 0.000000000000e+000
          2.000000000000e+002 2.857142857140e+000 0.000000000000e+000
[...]
      <PointData Scalars="Capillary_Pressure">
        <DataArray type="Float64" Name="Capillary_Pressure" format="ascii">
          3.858501772283e+005 0.000000000000e+000 0.000000000000e+000 3.858524494912e+005 3.860772316088e+005 3.833473484627e+005 3.824850726981e+005 3.805546376522e+005 3.802817228769e+005 3.783878135785e+005 3.763605129545e+005 3.762845288708e+005 3.741169013657e+005 3.739491434487e+005 3.720673773794e+005 3.696974042740e+005 3.697430090006e+005 3.677252202005e+005 3.673157981453e+005 3.652116336342e+005 3.618176756971e+005 3.616111682196e+005 3.610450791367e+005 3.580401501033e+005 3.577035589500e+005 3.555175544528e+005 3.548913701233e+005 3.517502473242e+005 3.512480931394e+005 3.491822206779e+005 3.485427057591e+005 3.453422745062e+005 3.448161763466e+005 3.428374058133e+005 3.420991019054e+005 3.384990242818e+005 3.384113757135e+005 3.358014097929e+005 3.334109201221e+005 3.331223260602e+005 3.323237571407e+005 3.291665058941e+005 3.264883187799e+005 3.261187141579e+005 3.224511580929e+005 3.219833291886e+005 3.191547838618e+005 3.186603165054e+005 3.162192160490e+005 3.153098270415e+005 3.112207328953e+005 3.110295967878e+005 3.071709260915e+005 3.066097816322e+005 3.026473522336e+005 3.012754238114e+005 2.990897208127e+005 2.986205153738e+005 2.974899668952e+005 2.936962273187e+005 2.904734630670e+005 2.900971848095e+005 2.860432698354e+005 2.853442516112e+005 2.824147504822e+005 2.790338309195e+005 2.760213533093e+005 2.753976473746e+005 2.708477677201e+005 2.692406955556e+005 2.666285677688e+005 2.634729110346e+005 2.626081038189e+005 2.597290648946e+005 2.559910723142e+005 2.526617909258e+005 2.521095485414e+005 2.485618363141e+005 2.453158467898e+005 2.439982198811e+005 2.382891884733e+005 2.349119320219e+005 2.317644750438e+005 2.281584876890e+005 2.246203428220e+005 2.208890009882e+005 2.201564271372e+005 2.166412383297e+005 2.127491344626e+005 2.092072686512e+005 2.019858120030e+005 1.981131745216e+005 1.941776554446e+005 1.898193384488e+005 1.871733829639e+005 1.795996803143e+005 1.750743210793e+005 1.725848179749e+005 1.644307518686e+005 1.581999987615e+005 1.551218049433e+005 1.449884367932e+005 1.384489460210e+005 1.313638013927e+005 1.225918665567e+005 1.133733505644e+005 1.033013420509e+005 9.109540047183e+004 7.763216042833e+004 6.081947567911e+004 3.893911599119e+004 7.562800531512e+003 0.000000000000e+000 0.000000000000e+000 0.000000000000e+000 0.000000000000e+000 0.000000000000e+000 0.000000000000e+000 0.000000000000e+000 0.000000000000e+000 0.000000000000e+000 0.000000000000e+000 0.000000000000e+000 0.000000000000e+000 0.000000000000e+000 0.000000000000e+000 0.000000000000e+000 0.000000000000e+000 0.000000000000e+000 0.000000000000e+000 0.000000000000e+000 0.000000000000e+000 0.000000000000e+000 0.000000000000e+000 0.000000000000e+000 0.000000000000e+000 0.000000000000e+000 0.000000000000e+000 0.000000000000e+000 0.000000000000e+000 0.000000000000e+000 0.000000000000e+000 0.000000000000e+000 0.000000000000e+000 0.000000000000e+000 0.000000000000e+000 0.000000000000e+000 0.000000000000e+000 0.000000000000e+000 0.000000000000e+000 0.000000000000e+000 0.000000000000e+000 0.000000000000e+000 0.000000000000e+000 0.000000000000e+000 0.000000000000e+000 0.000000000000e+000 0.000000000000e+000 0.000000000000e+000 0.000000000000e+000 0.000000000000e+000 0.000000000000e+000 0.000000000000e+000 0.000000000000e+000 0.000000000000e+000 0.000000000000e+000 0.000000000000e+000 0.000000000000e+000 0.000000000000e+000 0.000000000000e+000 0.000000000000e+000 0.000000000000e+000 0.000000000000e+000 0.000000000000e+000 0.000000000000e+000 7.558485286617e+003 3.892785271439e+004 6.079088768078e+004 7.762290553606e+004 9.108075963997e+004 1.033045216859e+005 1.133943667215e+005 1.225801498254e+005 1.313615482502e+005 1.384424881494e+005 1.449816669251e+005 1.551179234323e+005 1.581921335331e+005 1.644143653843e+005 1.725776376719e+005 1.750714262493e+005 1.796022923593e+005 1.871657178821e+005 1.898143077544e+005 1.941677895724e+005 1.980928937134e+005 2.019640624628e+005 2.092020596810e+005 2.127531000140e+005 2.166430077744e+005 2.201563973287e+005 2.208849328646e+005 2.246301870615e+005 2.281674329965e+005 2.317554545136e+005 2.349146615840e+005 2.382718649062e+005 2.439865311781e+005 2.452993894131e+005 2.485650800809e+005 2.520953364651e+005 2.526485366963e+005 2.559775774932e+005 2.597183510595e+005 2.626222164287e+005 2.659707393668e+005 2.666269690171e+005 2.692232565830e+005 2.708260215833e+005 2.754105315099e+005 2.785917924439e+005 2.790198383110e+005 2.823505060933e+005 2.853452690742e+005 2.860452226877e+005 2.900996837395e+005 2.904802080512e+005 2.937254197211e+005 2.974858530366e+005 2.986263264407e+005 2.991033405717e+005 3.013005781482e+005 3.056439738310e+005 3.066312306048e+005 3.071719892184e+005 3.110331005347e+005 3.112614608169e+005 3.152908439082e+005 3.161905978860e+005 3.186455746327e+005 3.191307956443e+005 3.219667579732e+005 3.252263134766e+005 3.261173169884e+005 3.264778305523e+005 3.291587643822e+005 3.323279601402e+005 3.331243165982e+005 3.334034365357e+005 3.358037749838e+005 3.384120687897e+005 3.384974765235e+005 3.420954992797e+005 3.428337184647e+005 3.448135050943e+005 3.453452836062e+005 3.485406090651e+005 3.491812709022e+005 3.512471409327e+005 3.517444538129e+005 3.548923970687e+005 3.555119376592e+005 3.577040682259e+005 3.580439666618e+005 3.610445067373e+005 3.616151183640e+005 3.618264136686e+005 3.652020616641e+005 3.673131528247e+005 3.677267588312e+005 3.697506909159e+005 3.696920365738e+005 3.720561978129e+005 3.721140361004e+005 3.741344511891e+005 3.762800755588e+005 3.763553906306e+005 3.783939286598e+005 3.802882624012e+005 3.805682999823e+005 3.824441798740e+005 3.833491575753e+005 3.860767211646e+005 3.858514973146e+005 3.858490269455e+005 3.858527792066e+005 3.858513980794e+005 3.858496125236e+005 3.858501888516e+005 3.858502573886e+005 3.858490948875e+005 3.858497405175e+005 3.858508849114e+005 3.858512738102e+005 3.858482507332e+005 3.858493177878e+005 0.000000000000e+000 3.783698333826e+005 0.000000000000e+000 0.000000000000e+000 5.194556992305e+004 1.352905332947e+005 1.796293611593e+005 3.614041177108e+005 2.088298579891e+005 3.492161824316e+005 3.386793854594e+005 3.263825023413e+005 3.062620091734e+005 2.907100324037e+005 2.748715604897e+005 2.556101397723e+005 2.352519111384e+005 3.699400532302e+005 3.162081723555e+005 2.208718075209e+005 2.238901070877e+005 2.452955633138e+005 2.659721374567e+005 2.823368498411e+005 2.986266945154e+005 0.000000000000e+000 0.000000000000e+000 1.020941677594e+005 2.986233233072e+005 2.825191841393e+005 2.658232234879e+005 2.449352226538e+005 1.580077315032e+005 1.941682464668e+005 3.555266426325e+005 3.448903785531e+005 3.330519195323e+005 1.941052256011e+005 1.581755789746e+005 1.032838299541e+005 0.000000000000e+000 0.000000000000e+000 3.331519822215e+005 3.448180766353e+005 3.555038215284e+005 0.000000000000e+000 0.000000000000e+000 3.192504832426e+005 3.115820969023e+005 3.739477975790e+005 3.652018728016e+005 0.000000000000e+000 3.805627632982e+005 0.000000000000e+000 3.805702841357e+005 3.737052765475e+005 3.652491758007e+005 3.221144536263e+005 3.107913339135e+005 0.000000000000e+000 2.352411261481e+005 0.000000000000e+000 2.556036507715e+005 2.748626059646e+005 2.906956953840e+005 3.058859827663e+005 2.088798291986e+005 5.029312047845e+004 1.343992715289e+005 1.795861134131e+005 3.492552901061e+005 3.387484531638e+005 2.098138538522e+005 1.797427373600e+005 1.352124712896e+005 5.085527828631e+004 2.907097759848e+005 2.748580619992e+005 2.556258151253e+005 0.000000000000e+000 2.352314466257e+005 0.000000000000e+000 3.264505537116e+005 3.387045055074e+005 3.492487427994e+005 3.614061704359e+005 0.000000000000e+000 0.000000000000e+000 3.763536785865e+005 3.610328128445e+005 3.024656743631e+005 3.286504800427e+005 0.000000000000e+000 3.824984131312e+005 3.699258025341e+005 3.783339799558e+005 3.699418844470e+005 3.162607193695e+005 3.217217535238e+005 3.112794548144e+005 3.741273148732e+005 3.651685371265e+005 3.161803357711e+005 0.000000000000e+000 9.305924139884e+004 0.000000000000e+000 1.552350863651e+005 0.000000000000e+000 1.902440835797e+005 2.442021061247e+005 2.791916771011e+005 2.946411733028e+005 2.627229834436e+005 3.549088508942e+005 3.333488475811e+005 3.448552094050e+005 2.245006617465e+005 3.162119951859e+005 0.000000000000e+000 3.833365007960e+005 0.000000000000e+000 3.833314156389e+005 2.396717246362e+005 2.598621274316e+005 2.792343677049e+005 2.941513139519e+005 2.020027173766e+005 2.279990007215e+005 2.167068416656e+005 1.690950563550e+005 3.293574648442e+005 1.169374791332e+005 3.426210914158e+005 0.000000000000e+000 3.520363810939e+005 0.000000000000e+000 0.000000000000e+000 0.000000000000e+000 0.000000000000e+000 0.000000000000e+000 1.177473337536e+005 8.693675460842e+004 1.692362629330e+005 1.518155481269e+005 3.519736988502e+005 1.906764071547e+005 2.020212920807e+005 3.425738344334e+005 3.455354682092e+005 2.941392756423e+005 2.792114372368e+005 2.597797421160e+005 2.856728085855e+005 2.669762125186e+005 2.436045511066e+005 2.482198670450e+005 3.334526653069e+005 2.166898982424e+005 2.277410503839e+005 0.000000000000e+000 3.578732616221e+005 0.000000000000e+000 3.454618994597e+005 8.895158762813e+004 3.335356500096e+005 1.512197475854e+005 3.014997115321e+005 2.858034359288e+005 2.671127803151e+005 2.513881611977e+005 1.908284192259e+005 3.699210378162e+005 0.000000000000e+000 0.000000000000e+000 3.106327212322e+005 3.246735086095e+005 3.650170518790e+005 2.168045742152e+005 2.669573940026e+005 2.481699024031e+005 2.856293151814e+005 3.014801079508e+005 3.578438880882e+005 3.426736179859e+005 0.000000000000e+000 3.293907235233e+005 0.000000000000e+000 1.183870169245e+005 2.018832474361e+005 1.653256853743e+005 3.577104169089e+005 0.000000000000e+000 0.000000000000e+000 3.147963974960e+005 3.741188838990e+005 0.000000000000e+000 2.165003495994e+005 2.053724797689e+005 1.726933432599e+005 3.289739655593e+005 1.233548305007e+005 3.420544346337e+005 2.861106756846e+005 2.692822243570e+005 2.521728588009e+005 0.000000000000e+000 3.580394297280e+005 0.000000000000e+000 3.675034510299e+005 3.017205628522e+005 0.000000000000e+000 0.000000000000e+000 0.000000000000e+000 2.989800386121e+005 3.324153566192e+005 3.070988472170e+005 3.253713625447e+005 3.802956068025e+005 3.617834894765e+005 3.762491208144e+005 3.719864881386e+005 3.617776721785e+005 2.383067073330e+005 2.597342698352e+005 2.786199869596e+005 2.937382870827e+005 5.678583284076e+003 3.517537498915e+005 0.000000000000e+000 2.282215973560e+005 1.871873834043e+005 9.016059363212e+003 1.448759255647e+005 0.000000000000e+000 7.757033812209e+004 2.388592517578e+005 2.597494148611e+005 2.785554026550e+005 2.936826686706e+005 3.516891429759e+005 3.357765815834e+005 3.485548768362e+005 3.485543128704e+005 7.675854178397e+004 3.353569980246e+005 1.448915427173e+005 1.871030627773e+005 2.281985191584e+005 0.000000000000e+000 0.000000000000e+000 3.833338312545e+005 3.833399698707e+005 0.000000000000e+000 3.798554336200e+005 0.000000000000e+000 0.000000000000e+000 3.784348809600e+005 0.000000000000e+000 3.762665352076e+005 3.798672618404e+005 3.255576680039e+005 3.065090270966e+005 3.612223417034e+005 3.761739902095e+005 3.261690218421e+005 3.676135817322e+005 3.677552812011e+005 3.065207100336e+005 3.718839379587e+005 3.216687696142e+005 3.149320160755e+005 3.720449586600e+005 3.423771725499e+005 2.015720235778e+005 1.685156209526e+005 1.205482153540e+005 0.000000000000e+000 0.000000000000e+000 2.169392991888e+005 3.017478576547e+005 2.854913359347e+005 2.697512170893e+005 2.518279923721e+005 3.190568621700e+005 3.676918147684e+005 3.118346077605e+005 3.186338134483e+005 0.000000000000e+000 0.000000000000e+000 3.575925264200e+005 3.317865338516e+005 3.784653550810e+005 3.805203828235e+005 0.000000000000e+000 3.719409152215e+005 2.353699635600e+005 2.586059973325e+005 2.754628622519e+005 2.905180051484e+005 2.092240761760e+005 2.096239225267e+005 2.316911405976e+005 1.750131508949e+005 1.327088167942e+005 3.265076790266e+005 3.738715546107e+004 3.388582222357e+005 0.000000000000e+000 3.512680229351e+005 0.000000000000e+000 0.000000000000e+000 3.701674241911e+004 1.326441503584e+005 1.761445552764e+005 3.512839313397e+005 3.388679512838e+005 2.904908500669e+005 2.754738691761e+005 2.586160797693e+005 0.000000000000e+000 3.610257970016e+005 3.025664237919e+005 0.000000000000e+000 0.000000000000e+000 0.000000000000e+000 3.582432762547e+005 3.618806831365e+005 3.762524018368e+005 3.152252465394e+005 0.000000000000e+000 0.000000000000e+000 1.083530076723e+005 1.616306495128e+005 1.983518957859e+005 3.555907722052e+005 3.427653426777e+005 3.326841115205e+005 2.453445324315e+005 2.825308955703e+005 2.990500063052e+005 2.665899277927e+005 2.205357748998e+005 0.000000000000e+000 0.000000000000e+000 0.000000000000e+000 0.000000000000e+000 1.357188342830e+005 1.794753636364e+005 3.387748819195e+005 2.905424936912e+005 2.745548644056e+005 2.554046326844e+005 3.827190707386e+005 3.187009004919e+005 2.095579371665e+005 2.092458822957e+005 3.059036999666e+005 0.000000000000e+000 3.859186513796e+005 3.289873115002e+005 3.014724557731e+005 1.942242496852e+005 1.582548374484e+005 1.033390045272e+005 0.000000000000e+000 0.000000000000e+000 3.330970706861e+005 3.448002470223e+005 3.555150590421e+005 2.659725786718e+005 2.453024568528e+005 2.986258340810e+005 2.824126241469e+005 0.000000000000e+000 0.000000000000e+000 2.824141053645e+005 2.659559653154e+005 1.032889645559e+005 2.453053402156e+005 1.582056860300e+005 1.941460006588e+005 3.448245546948e+005 2.208394583139e+005 2.208975048718e+005 3.674800398551e+005 3.225673082072e+005 3.696995962654e+005 2.994445803979e+005 3.160160375941e+005 0.000000000000e+000 0.000000000000e+000 3.110454048910e+005 3.075558568351e+005 3.156460571031e+005 2.050077280172e+005 2.358475104795e+005 2.318035573664e+005 2.123493029895e+005 2.519309396175e+005 2.704073100288e+005 2.896848235588e+005 1.824028260009e+005 3.489761449445e+005 3.380770072863e+005 0.000000000000e+000 6.865364668110e+004 1.415814574209e+005 0.000000000000e+000 3.489738171857e+005 6.871397757771e+004 3.380742055032e+005 2.896861710276e+005 2.703873674979e+005 2.523138956000e+005 1.415871597948e+005 1.824073303394e+005 3.828144323668e+005 3.761285675859e+005 0.000000000000e+000 3.828070048341e+005 2.352014338964e+005 2.352956354488e+005 3.492597942231e+005 3.492637921130e+005 4.982195875140e+004 5.029909088757e+004 0.000000000000e+000 3.718448547327e+005 3.783666968291e+005 3.610086906653e+005 3.699522315633e+005 0.000000000000e+000 3.859222905736e+005 0.000000000000e+000 3.859200856148e+005 3.739672757312e+005 0.000000000000e+000 0.000000000000e+000 1.797751324550e+005 1.352380147097e+005 3.386992088889e+005 2.554953079637e+005 2.907485751500e+005 2.749117852232e+005 0.000000000000e+000 3.653069188479e+005 3.652651445906e+005 3.762680134537e+005 3.068955044366e+005 3.257161952224e+005 3.762876423951e+005 3.616235494735e+005 3.554125534568e+005 3.218158294394e+005 3.647575306551e+005 0.000000000000e+000 0.000000000000e+000 3.247466364207e+005 3.073049300618e+005 0.000000000000e+000 3.266181519329e+005 3.071650128577e+005 3.111200148576e+005 0.000000000000e+000 3.578692550688e+005 0.000000000000e+000 2.861078982517e+005 2.692982239068e+005 2.521672932693e+005 2.132918894832e+005 3.426004272686e+005 1.170059873845e+005 3.317105988067e+005 1.691533108074e+005 2.054817598722e+005 0.000000000000e+000 3.677431536384e+005 3.119227741319e+005 3.184960986046e+005 3.264652260744e+005 3.720792393221e+005 0.000000000000e+000 3.859239489808e+005 0.000000000000e+000 3.860636197926e+005 3.785032995994e+005 3.613849535409e+005 3.163047565968e+005 3.217992608564e+005 0.000000000000e+000 3.333494219092e+005 2.982339778029e+005 3.652757249565e+005 3.068237656276e+005 3.698081656858e+005 1.907260826659e+005 1.506962301723e+005 8.785841596730e+004 3.335883694896e+005 3.455349041865e+005 7.582408166389e+004 0.000000000000e+000 1.447775840712e+005 1.117513221445e+004 1.869836085749e+005 3.485902482087e+005 3.353961026790e+005 3.511920936689e+005 2.936405485818e+005 2.596368795233e+005 2.759228123114e+005 2.390529639347e+005 0.000000000000e+000 0.000000000000e+000 3.519967343460e+005 2.278374358920e+005 2.942245802687e+005 2.793183057759e+005 2.599306978355e+005 2.436310774409e+005 2.282908153370e+005 2.208728460493e+005 2.452951409592e+005 2.824127269267e+005 2.659808513946e+005 2.986293291325e+005 0.000000000000e+000 0.000000000000e+000 1.032476540976e+005 1.941650393582e+005 1.581680681940e+005 3.555079989899e+005 3.448244159843e+005 3.331260769006e+005 3.257738678802e+005 3.617645975106e+005 0.000000000000e+000 3.784971043851e+005 2.284318846452e+005 2.389183494786e+005 2.595362682422e+005 2.783423667921e+005 2.935272177458e+005 1.653949937859e+004 0.000000000000e+000 3.510935086466e+005 7.413842775212e+004 1.446428917071e+005 1.868392930675e+005 3.487834081706e+005 3.354383709681e+005 3.158780585763e+005 0.000000000000e+000 3.187657289798e+005 0.000000000000e+000 2.240264298269e+005 2.207687480756e+005 2.450903250436e+005 2.656607057499e+005 2.821809942547e+005 2.983060418719e+005 0.000000000000e+000 0.000000000000e+000 1.046444832081e+005 1.620034972880e+005 1.937162953059e+005 3.447129992830e+005 1.942843786733e+005 2.822850526601e+005 2.636191970493e+005 2.451443372609e+005 1.583027999940e+005 1.033828788049e+005 3.330626535083e+005 0.000000000000e+000 3.447781858574e+005 0.000000000000e+000 3.555119668045e+005 3.699407495894e+005 0.000000000000e+000 3.551178551767e+005 0.000000000000e+000 2.792434203834e+005 2.442687632065e+005 2.626109536413e+005 2.946806289857e+005 3.447459046726e+005 9.416445450707e+004 3.330550819865e+005 1.540233490316e+005 1.904773224212e+005 2.242885233627e+005 3.784054541266e+005 0.000000000000e+000 3.859236771092e+005 0.000000000000e+000 0.000000000000e+000 0.000000000000e+000 3.189240016191e+005 3.120827841912e+005 3.654239134370e+005 3.554490194504e+005 0.000000000000e+000 3.780132199174e+005 0.000000000000e+000 0.000000000000e+000 3.615376283195e+005 2.055529012991e+005 1.728307857992e+005 3.290772493751e+005 1.268667945721e+005 3.419944489656e+005 2.520783441221e+005 2.692887619499e+005 2.860360787943e+005 2.133082033018e+005 0.000000000000e+000 3.581267188916e+005 0.000000000000e+000 3.264805781706e+005 3.059724455842e+005 3.191786340553e+005 3.740912033847e+005 3.762486536961e+005 0.000000000000e+000 3.825272673295e+005 0.000000000000e+000 3.825272691034e+005 2.981820073855e+005 3.333320494247e+005 3.014844083088e+005 3.719706899301e+005 0.000000000000e+000 3.827284816007e+005 3.221751591875e+005 3.115076883198e+005 3.192814132175e+005 3.654463444508e+005 3.739887685500e+005 3.697883806865e+005 3.294944995709e+005 3.739946100221e+005 3.677878902188e+005 3.190693791235e+005 3.763626844695e+005 3.741775117894e+005 3.157656216971e+005 3.251411962085e+005 3.113292940051e+005 3.218916498996e+005 0.000000000000e+000 3.802940846277e+005 3.579888794118e+005 2.204707533020e+005 2.124187372632e+005 0.000000000000e+000 0.000000000000e+000 0.000000000000e+000 0.000000000000e+000 1.234501896910e+005 1.727749790543e+005 3.420109063903e+005 1.977784389159e+005 2.049440963456e+005 2.990563080625e+005 3.016073620490e+005 2.852763163647e+005 2.896194649745e+005 2.703132486133e+005 2.661703179089e+005 2.485579670200e+005 2.526252136697e+005 3.805546883434e+005 0.000000000000e+000 0.000000000000e+000 0.000000000000e+000 0.000000000000e+000 3.828403051764e+005 0.000000000000e+000 2.394949342173e+005 2.597179665081e+005 2.791200882348e+005 2.934633861182e+005 2.280062403153e+005 2.162507178748e+005 2.021408563132e+005 1.693139003203e+005 3.292593924436e+005 1.178069102376e+005 3.425383485199e+005 0.000000000000e+000 3.519651931297e+005 0.000000000000e+000 0.000000000000e+000 0.000000000000e+000 0.000000000000e+000 1.178285138963e+005 1.69312