<?xml version="1.0"?>
<VTKFile type="UnstructuredGrid" version="0.1" byte_order="LittleEndian">
  <UnstructuredGrid>
    <Piece NumberOfPoints="206" NumberOfCells="326">
      <Points>
        <DataArray type="Float64" NumberOfComponents="3" format="ascii">
          1.897435897436e+002 0.000000000000e+000 0.000000000000e+000
          1.931791020913e+002 4.394475469951e+000 0.000000000000e+000
          1.948717948718e+002 0.000000000000e+000 0.000000000000e+000
          5.880459463038e+000 1.099154902703e+001 0.000000000000e+000
          0.000000000000e+000 6.666666666655e+000 0.000000000000e+000
          0.000000000000e+000 1.333333333332e+001 0.000000000000e+000
          2.022497621136e+001 4.353446977749e+000 0.000000000000e+000
          2.051282051291e+001 0.000000000000e+000 0.000000000000e+000
          1.538461538468e+001 0.000000000000e+000 0.000000000000e+000
          1.711973192023e+001 9.822643375701e+000 0.000000000000e+000
          2.235754985755e+001 9.965277777778e+000 0.000000000000e+000
          1.342973104686e+001 5.024912353671e+000 0.000000000000e+000
          2.051282051273e+001 2.000000000000e+001 0.000000000000e+000
          1.990430525733e+001 1.515950912857e+001 0.000000000000e+000
          1.538461538455e+001 2.000000000000e+001 0.000000000000e+000
          1.275415082211e+002 1.500000000000e+001 0.000000000000e+000
          1.305226984145e+002 1.000000000000e+001 0.000000000000e+000
          1.266144349478e+002 1.000000000000e+001 0.000000000000e+000
          1.320283396971e+002 1.500000000000e+001 0.000000000000e+000
          1.275415082214e+002 5.000000000000e+000 0.000000000000e+000
          1.320283396974e+002 5.000000000000e+000 0.000000000000e+000
          2.662324775127e+001 5.694754464286e+000 0.000000000000e+000
          2.617521367521e+001 1.000000000000e+001 0.000000000000e+000
          2.532894973587e+001 1.397776144540e+001 0.000000000000e+000
          1.184289081109e+002 1.400000000000e+001 0.000000000000e+000
          1.217390520306e+002 1.000000000000e+001 0.000000000000e+000
          1.150696490874e+002 1.000602607727e+001 0.000000000000e+000
          1.222794923522e+002 1.500000000000e+001 0.000000000000e+000
          1.184289081111e+002 6.000000000000e+000 0.000000000000e+000
          1.222794923525e+002 5.000000000000e+000 0.000000000000e+000
          1.647570346228e+002 1.499982920203e+001 0.000000000000e+000
          1.610766879766e+002 9.999898274740e+000 0.000000000000e+000
          1.584898332400e+002 1.571424274568e+001 0.000000000000e+000
          7.586604251621e+001 5.621173932933e+000 0.000000000000e+000
          8.021655268624e+001 1.019499276048e+001 0.000000000000e+000
          8.189146271784e+001 4.117034117006e+000 0.000000000000e+000
          7.588302713352e+001 1.447660101075e+001 0.000000000000e+000
          8.201035504047e+001 1.604351572524e+001 0.000000000000e+000
          1.647575611852e+002 4.999583052019e+000 0.000000000000e+000
          1.589293847822e+002 4.146609780286e+000 0.000000000000e+000
          1.641025641024e+002 2.000000000000e+001 0.000000000000e+000
          1.692307692306e+002 2.000000000000e+001 0.000000000000e+000
          1.660230030600e+002 1.000000000000e+001 0.000000000000e+000
          1.697917692894e+002 1.499909577546e+001 0.000000000000e+000
          1.641025641028e+002 0.000000000000e+000 0.000000000000e+000
          1.692307692309e+002 0.000000000000e+000 0.000000000000e+000
          1.697948641857e+002 4.997649016204e+000 0.000000000000e+000
          1.743589743588e+002 2.000000000000e+001 0.000000000000e+000
          1.710911944708e+002 1.000000000000e+001 0.000000000000e+000
          1.749412615107e+002 1.499457465278e+001 0.000000000000e+000
          1.743589743591e+002 0.000000000000e+000 0.000000000000e+000
          1.749598308881e+002 4.985894097222e+000 0.000000000000e+000
          1.794871794871e+002 2.000000000000e+001 0.000000000000e+000
          1.769615825547e+002 9.964192708333e+000 0.000000000000e+000
          1.806150388551e+002 1.469347696151e+001 0.000000000000e+000
          1.794871794873e+002 0.000000000000e+000 0.000000000000e+000
          1.803838168879e+002 4.953657234265e+000 0.000000000000e+000
          1.846153846153e+002 2.000000000000e+001 0.000000000000e+000
          1.846153846155e+002 0.000000000000e+000 0.000000000000e+000
          1.858160403609e+002 4.891281862002e+000 0.000000000000e+000
          1.487179487182e+002 0.000000000000e+000 0.000000000000e+000
          1.505413635482e+002 5.088785165962e+000 0.000000000000e+000
          1.538461538464e+002 0.000000000000e+000 0.000000000000e+000
          5.128205128183e+001 2.000000000000e+001 0.000000000000e+000
          4.937524205543e+001 1.478507223003e+001 0.000000000000e+000
          4.615384615364e+001 2.000000000000e+001 0.000000000000e+000
          4.335527308620e+001 1.560308717176e+001 0.000000000000e+000
          4.102564102546e+001 2.000000000000e+001 0.000000000000e+000
          4.429011235569e+001 1.011123788964e+001 0.000000000000e+000
          3.589743589728e+001 2.000000000000e+001 0.000000000000e+000
          3.424338337179e+001 1.480928422469e+001 0.000000000000e+000
          3.076923076909e+001 2.000000000000e+001 0.000000000000e+000
          3.005689385761e+001 1.060364436599e+001 0.000000000000e+000
          6.153846153820e+001 2.000000000000e+001 0.000000000000e+000
          5.861144803786e+001 1.567337793620e+001 0.000000000000e+000
          5.641025641001e+001 2.000000000000e+001 0.000000000000e+000
          6.364098538444e+001 1.500000000000e+001 0.000000000000e+000
          5.989457932650e+001 1.030421617259e+001 0.000000000000e+000
          6.666666666639e+001 2.000000000000e+001 0.000000000000e+000
          6.863961921157e+001 1.499549437831e+001 0.000000000000e+000
          6.567188823475e+001 9.930555555556e+000 0.000000000000e+000
          8.717948717914e+001 2.000000000000e+001 0.000000000000e+000
          8.205128205096e+001 2.000000000000e+001 0.000000000000e+000
          8.825660559227e+001 1.457690124438e+001 0.000000000000e+000
          9.230769230733e+001 2.000000000000e+001 0.000000000000e+000
          8.616129659787e+001 8.733480538898e+000 0.000000000000e+000
          9.150074733547e+001 1.030748155382e+001 0.000000000000e+000
          1.384615384618e+002 0.000000000000e+000 0.000000000000e+000
          1.415932379237e+002 4.335026874129e+000 0.000000000000e+000
          1.435897435900e+002 0.000000000000e+000 0.000000000000e+000
          1.370080938287e+002 5.069444256391e+000 0.000000000000e+000
          1.404454238813e+002 9.718036725159e+000 0.000000000000e+000
          1.333333333336e+002 0.000000000000e+000 0.000000000000e+000
          1.076923076927e+002 0.000000000000e+000 0.000000000000e+000
          1.108991862601e+002 4.857696974887e+000 0.000000000000e+000
          1.128205128209e+002 0.000000000000e+000 0.000000000000e+000
          1.230769230773e+002 0.000000000000e+000 0.000000000000e+000
          1.282051282055e+002 0.000000000000e+000 0.000000000000e+000
          1.421648412768e+002 1.518915604417e+001 0.000000000000e+000
          1.384615384612e+002 2.000000000000e+001 0.000000000000e+000
          1.435897435894e+002 2.000000000000e+001 0.000000000000e+000
          1.370080938284e+002 1.506944425639e+001 0.000000000000e+000
          1.333333333330e+002 2.000000000000e+001 0.000000000000e+000
          1.230769230766e+002 2.000000000000e+001 0.000000000000e+000
          1.282051282048e+002 2.000000000000e+001 0.000000000000e+000
          1.106262295343e+002 1.449114286029e+001 0.000000000000e+000
          1.076923076919e+002 2.000000000000e+001 0.000000000000e+000
          1.128205128202e+002 2.000000000000e+001 0.000000000000e+000
          1.060408540078e+002 1.575486111111e+001 0.000000000000e+000
          5.803874767782e+001 4.824157678094e+000 0.000000000000e+000
          6.153846153872e+001 0.000000000000e+000 0.000000000000e+000
          5.641025641050e+001 0.000000000000e+000 0.000000000000e+000
          6.364098538470e+001 5.000000000000e+000 0.000000000000e+000
          6.666666666694e+001 0.000000000000e+000 0.000000000000e+000
          6.863961921185e+001 4.974991732804e+000 0.000000000000e+000
          9.032615013277e+001 4.937074209742e+000 0.000000000000e+000
          9.230769230805e+001 0.000000000000e+000 0.000000000000e+000
          8.717948717983e+001 0.000000000000e+000 0.000000000000e+000
          1.524809577360e+002 1.505950683102e+001 0.000000000000e+000
          1.487179487177e+002 2.000000000000e+001 0.000000000000e+000
          1.538461538459e+002 2.000000000000e+001 0.000000000000e+000
          1.472187406962e+002 1.523528621385e+001 0.000000000000e+000
          4.767577943456e+001 4.990079365079e+000 0.000000000000e+000
          5.128205128227e+001 0.000000000000e+000 0.000000000000e+000
          4.615384615405e+001 0.000000000000e+000 0.000000000000e+000
          5.289188460113e+001 4.768994659147e+000 0.000000000000e+000
          4.250523169876e+001 4.799709939732e+000 0.000000000000e+000
          4.102564102582e+001 0.000000000000e+000 0.000000000000e+000
          3.076923076937e+001 0.000000000000e+000 0.000000000000e+000
          2.564102564114e+001 0.000000000000e+000 0.000000000000e+000
          3.231012230340e+001 5.174437830688e+000 0.000000000000e+000
          3.589743589759e+001 0.000000000000e+000 0.000000000000e+000
          3.747197445908e+001 4.807502868680e+000 0.000000000000e+000
          1.589743589741e+002 2.000000000000e+001 0.000000000000e+000
          1.551353134763e+002 9.374350718944e+000 0.000000000000e+000
          7.179487179516e+001 0.000000000000e+000 0.000000000000e+000
          7.179487179458e+001 2.000000000000e+001 0.000000000000e+000
          1.179487179484e+002 2.000000000000e+001 0.000000000000e+000
          1.179487179491e+002 0.000000000000e+000 0.000000000000e+000
[...]
      <PointData Scalars="Capillary_Pressure">
        <DataArray type="Float64" Name="Capillary_Pressure" format="ascii">
          0.000000000000e+000 0.000000000000e+000 0.000000000000e+000 3.800076746123e+005 3.857034469719e+005 3.856676319694e+005 3.670272116932e+005 3.670046069389e+005 3.717058310066e+005 3.706308911404e+005 3.646476714048e+005 3.737683262455e+005 3.670451072735e+005 3.671161166507e+005 3.717556735147e+005 2.105566438060e+005 2.008632091836e+005 2.106210007931e+005 1.956338357512e+005 2.105541910559e+005 1.956262469234e+005 3.620643600394e+005 3.617180388190e+005 3.623974315830e+005 2.307420044622e+005 2.233527474804e+005 2.368845642370e+005 2.235628558607e+005 2.307487070180e+005 2.235639765342e+005 0.000000000000e+000 1.184291617933e+004 5.823921953470e+004 3.028965231804e+005 2.967653886486e+005 2.961943527532e+005 3.028932799801e+005 2.961445605785e+005 0.000000000000e+000 5.132411564814e+004 0.000000000000e+000 0.000000000000e+000 0.000000000000e+000 0.000000000000e+000 0.000000000000e+000 0.000000000000e+000 0.000000000000e+000 0.000000000000e+000 0.000000000000e+000 0.000000000000e+000 0.000000000000e+000 0.000000000000e+000 0.000000000000e+000 0.000000000000e+000 0.000000000000e+000 0.000000000000e+000 0.000000000000e+000 0.000000000000e+000 0.000000000000e+000 0.000000000000e+000 1.335451044539e+005 1.229485265320e+005 1.064636644998e+005 3.356390116524e+005 3.362932859907e+005 3.401916296690e+005 3.429202792018e+005 3.455121605160e+005 3.425970791060e+005 3.525696344153e+005 3.529889580797e+005 3.577809604032e+005 3.578244044337e+005 3.222178545494e+005 3.253997286985e+005 3.281266995310e+005 3.193242169960e+005 3.250453601787e+005 3.158563030513e+005 3.131805735505e+005 3.165872744033e+005 2.874423943035e+005 2.961185434829e+005 2.850420182835e+005 2.808898737944e+005 2.884310040192e+005 2.813407157759e+005 1.755778336125e+005 1.647976454976e+005 1.563775694372e+005 1.806727536648e+005 1.683632674620e+005 1.920107454033e+005 2.518803201940e+005 2.476784094818e+005 2.420610890488e+005 2.199573355504e+005 2.068831735201e+005 1.651382229026e+005 1.755949762515e+005 1.563795968433e+005 1.806934736397e+005 1.920199985384e+005 2.199573099299e+005 2.068866924538e+005 2.470813533342e+005 2.518823180353e+005 2.420663400561e+005 2.567330249214e+005 3.276833062936e+005 3.221901924185e+005 3.281107227288e+005 3.192912544042e+005 3.158373948795e+005 3.131672123693e+005 2.817915402921e+005 2.809148360657e+005 2.881139890194e+005 1.144207946903e+005 1.336394932957e+005 1.020954802943e+005 1.412616625950e+005 3.396790899652e+005 3.355954449129e+005 3.401664907233e+005 3.322628567012e+005 3.445200732133e+005 3.454986475779e+005 3.576991322314e+005 3.622873458642e+005 3.553419684531e+005 3.524998361437e+005 3.493423023302e+005 4.947385959784e+004 9.649422091121e+004 3.087741871852e+005 3.087830093441e+005 2.311887797500e+005 2.311934686900e+005 3.776416198317e+005 3.789550366706e+005 0.000000000000e+000 0.000000000000e+000 0.000000000000e+000 2.369560258061e+005 2.369284963947e+005 0.000000000000e+000 2.764944881254e+005 2.758645583020e+005 2.724786276210e+005 2.694039278732e+005 2.620360221101e+005 2.724814820530e+005 2.688539810512e+005 2.620398870330e+005 2.961375812734e+005 3.022612717272e+005 3.022631872967e+005 4.889597773704e+004 0.000000000000e+000 3.811293631750e+005 0.000000000000e+000 0.000000000000e+000 2.620799417019e+005 2.653069495027e+005 3.353693968694e+005 2.729320858577e+005 1.880078464792e+005 2.569511600093e+005 1.291145066492e+005 3.522286306274e+005 2.660417823684e+005 2.763734021771e+005 2.562970344624e+005 0.000000000000e+000 0.000000000000e+000 3.087487956505e+005 0.000000000000e+000 3.086650926871e+005 3.086574894679e+005 3.727916488440e+005 2.883548240036e+005 2.482972173823e+005 3.750127024529e+005 3.769964277455e+005 1.479821068538e+005 3.487477931376e+005 3.316018046509e+005 3.484753215998e+005 1.487744232317e+005 3.313065583678e+005 3.644755905851e+005 3.623072517072e+005 1.509904083720e+005 3.293878338783e+005 3.467187361485e+005 2.916991503238e+005 3.769477663672e+005 3.811325544710e+005 3.811707333730e+005 3.028572072537e+005 9.890035556369e+004 3.580718089855e+005 3.856647918158e+005 3.856423839596e+005 0.000000000000e+000 
        </DataArray>
        <DataArray type="Float64" Name="Gas_Pressure" format="ascii">
          1.000000000000e+006 1.000000000000e+006 1.000000000000e+006 1.000000000000e+006 1.000000000000e+006 1.000000000000e+006 1.000000000000e+006 1.000000000000e+006 1.000000000000e+006 1.000000000000e+006 1.000000000000e+006 1.000000000000e+006 1.000000000000e+006 1.000000000000e+006 1.000000000000e+006 1.000000000000e+006 1.000000000000e+006 1.000000000000e+006 1.000000000000e+006 1.000000000000e+006 1.000000000000e+006 1.000000000000e+006 1.000000000000e+006 1.000000000000e+006 1.000000000000e+006 1.000000000000e+006 1.000000000000e+006 1.000000000000e+006 1.000000000000e+006 1.000000000000e+006 1.000000000000e+006 1.000000000000e+006 1.000000000000e+006 1.000000000000e+006 1.000000000000e+006 1.000000000000e+006 1.000000000000e+006 1.000000000000e+006 1.000000000000e+006 1.000000000000e+006 1.000000000000e+006 1.000000000000e+006 1.000000000000e+006 1.000000000000e+006 1.000000000000e+006 1.000000000000e+006 1.000000000000e+006 1.000000000000e+006 1.000000000000e+006 1.000000000000e+006 1.000000000000e+006 1.000000000000e+006 1.000000000000e+006 1.000000000000e+006 1.000000000000e+006 1.000000000000e+006 1.000000000000e+006 1.000000000000e+006 1.000000000000e+006 1.000000000000e+006 1.000000000000e+006 1.000000000000e+006 1.000000000000e+006 1.000000000000e+006 1.000000000000e+006 1.000000000000e+006 1.000000000000e+006 1.000000000000e+006 1.000000000000e+006 1.000000000000e+006 1.000000000000e+006 1.000000000000e+006 1.000000000000e+006 1.000000000000e+006 1.000000000000e+006 1.000000000000e+006 1.000000000000e+006 1.000000000000e+006 1.000000000000e+006 1.000000000000e+006 1.000000000000e+006 1.000000000000e+006 1.000000000000e+006 1.000000000000e+006 1.000000000000e+006 1.000000000000e+006 1.000000000000e+006 1.000000000000e+006 1.000000000000e+006 1.000000000000e+006 1.000000000000e+006 1.000000000000e+006 1.000000000000e+006 1.000000000000e+006 1.000000000000e+006 1.000000000000e+006 1.000000000000e+006 1.000000000000e+006 1.000000000000e+006 1.000000000000e+006 1.000000000000e+006 1.000000000000e+006 1.000000000000e+006 1.000000000000e+006 1.000000000000e+006 1.000000000000e+006 1.000000000000e+006 1.000000000000e+006 1.000000000000e+006 1.000000000000e+006 1.000000000000e+006 1.000000000000e+006 1.000000000000e+006 1.000000000000e+006 1.000000000000e+006 1.000000000000e+006 1.000000000000e+006 1.000000000000e+006 1.000000000000e+006 1.000000000000e+006 1.000000000000e+006 1.000000000000e+006 1.000000000000e+006 1.000000000000e+006 1.000000000000e+006 1.000000000000e+006 1.000000000000e+006 1.000000000000e+006 1.000000000000e+006 1.000000000000e+006 1.000000000000e+006 1.000000000000e+006 1.000000000000e+006 1.000000000000e+006 1.000000000000e+006 1.000000000000e+006 1.000000000000e+006 1.000000000000e+006 1.000000000000e+006 1.000000000000e+006 1.000000000000e+006 1.000000000000e+006 1.000000000000e+006 1.000000000000e+006 1.000000000000e+006 1.000000000000e+006 1.000000000000e+006 1.000000000000e+006 1.000000000000e+006 1.000000000000e+006 1.000000000000e+006 1.000000000000e+006 1.000000000000e+006 1.000000000000e+006 1.000000000000e+006 1.000000000000e+006 1.000000000000e+006 1.000000000000e+006 1.000000000000e+006 1.000000000000e+006 1.000000000000e+006 1.000000000000e+006 1.000000000000e+006 1.000000000000e+006 1.000000000000e+006 1.000000000000e+006 1.000000000000e+006 1.000000000000e+006 1.000000000000e+006 1.000000000000e+006 1.000000000000e+006 1.000000000000e+006 1.000000000000e+006 1.000000000000e+006 1.000000000000e+006 1.000000000000e+006 1.000000000000e+006 1.000000000000e+006 1.000000000000e+006 1.000000000000e+006 1.000000000000e+006 1.000000000000e+006 1.000000000000e+006 1.000000000000e+006 1.000000000000e+006 1.000000000000e+006 1.000000000000e+006 1.000000000000e+006 1.000000000000e+006 1.000000000000e+006 1.000000000000e+006 1.000000000000e+006 1.000000000000e+006 1.000000000000e+006 1.000000000000e+006 1.000000000000e+006 1.000000000000e+006 1.000000000000e+006 1.000000000000e+006 1.000000000000e+006 1.000000000000e+006 1.000000000000e+006 1.000000000000e+006 1.000000000000e+006 1.000000000000e+006 1.000000000000e+006 
        </DataArray>
        <DataArray type="Float64" Name="LIQUID_PRESSURE" format="ascii">
          1.000033285514e+006 1.000022124201e+006 1.000016636358e+006 1.000323431852e+006 1.000321929420e+006 1.000322233856e+006 1.000309213772e+006 1.000306224064e+006 1.000311808179e+006 1.000304559152e+006 1.000310832868e+006 1.000310697009e+006 1.000305810845e+006 1.000311712397e+006 1.000311286589e+006 1.000206202551e+006 1.000207035524e+006 1.000213754473e+006 1.000207351115e+006 1.000206193409e+006 1.000207341134e+006 1.000291338168e+006 1.000299580028e+006 1.000301835127e+006 1.000221473764e+006 1.000217226564e+006 1.000229353888e+006 1.000212080983e+006 1.000221431428e+006 1.000212063698e+006 1.000110244831e+006 1.000148537762e+006 1.000159206523e+006 1.000268830833e+006 1.000264964001e+006 1.000252156837e+006 1.000268698186e+006 1.000251405366e+006 1.000114364551e+006 1.000157466411e+006 1.000113234243e+006 1.000098112374e+006 1.000113470996e+006 1.000096869434e+006 1.000116274393e+006 1.000100054376e+006 1.000098454943e+006 1.000082435263e+006 1.000094350859e+006 1.000080859666e+006 1.000083406875e+006 1.000081471755e+006 1.000066207814e+006 1.000074774124e+006 1.000062702839e+006 1.000066665007e+006 1.000063718652e+006 1.000049746508e+006 1.000049955074e+006 1.000046030470e+006 1.000181056065e+006 1.000178170420e+006 1.000168529863e+006 1.000274995030e+006 1.000289330879e+006 1.000289550328e+006 1.000294951076e+006 1.000296301840e+006 1.000288062171e+006 1.000285279332e+006 1.000298927574e+006 1.000289638366e+006 1.000296809751e+006 1.000276653605e+006 1.000282101012e+006 1.000283292957e+006 1.000276977896e+006 1.000271796606e+006 1.000271761349e+006 1.000271026761e+006 1.000276522705e+006 1.000252964953e+006 1.000251043096e+006 1.000256282050e+006 1.000240542986e+006 1.000257157260e+006 1.000245747053e+006 1.000198090435e+006 1.000192607752e+006 1.000190410510e+006 1.000199758903e+006 1.000195613435e+006 1.000205125013e+006 1.000236597434e+006 1.000225051896e+006 1.000229888816e+006 1.000216447854e+006 1.000210639121e+006 1.000187871514e+006 1.000198101178e+006 1.000190378269e+006 1.000199784129e+006 1.000205134494e+006 1.000216465244e+006 1.000210650369e+006 1.000229844466e+006 1.000236555613e+006 1.000229854974e+006 1.000230769331e+006 1.000270135734e+006 1.000276845451e+006 1.000283425681e+006 1.000277223562e+006 1.000271889972e+006 1.000271117741e+006 1.000254457957e+006 1.000240381538e+006 1.000249101391e+006 1.000171885735e+006 1.000180994593e+006 1.000170474370e+006 1.000183303122e+006 1.000278107406e+006 1.000275341647e+006 1.000289801291e+006 1.000286264879e+006 1.000289693126e+006 1.000296453492e+006 1.000290423098e+006 1.000299608741e+006 1.000296935698e+006 1.000285957324e+006 1.000298857503e+006 1.000157619732e+006 1.000165925852e+006 1.000270064896e+006 1.000270007271e+006 1.000224216120e+006 1.000224177739e+006 1.000302266106e+006 1.000315725256e+006 1.000054603988e+006 1.000037248568e+006 1.000021681315e+006 1.000228660797e+006 1.000228800874e+006 1.000041559122e+006 1.000248382528e+006 1.000247464589e+006 1.000236196694e+006 1.000242401772e+006 1.000238850155e+006 1.000236168331e+006 1.000242251078e+006 1.000238781402e+006 1.000251023418e+006 1.000262630051e+006 1.000262616732e+006 1.000157482750e+006 1.000033193523e+006 1.000318812849e+006 1.000018841203e+006 1.000000000000e+006 1.000238723532e+006 1.000239903977e+006 1.000285806728e+006 1.000244595279e+006 1.000202803416e+006 1.000236496444e+006 1.000178844439e+006 1.000296710703e+006 1.000241518652e+006 1.000242618982e+006 1.000234982714e+006 1.000016604311e+006 1.000000000000e+006 1.000269712222e+006 1.000000000000e+006 1.000267872632e+006 1.000267919253e+006 1.000315205786e+006 1.000255873305e+006 1.000234614890e+006 1.000319541107e+006 1.000313078728e+006 1.000187042244e+006 1.000286454710e+006 1.000273859933e+006 1.000294553120e+006 1.000182204859e+006 1.000281973930e+006 1.000304420552e+006 1.000299397259e+006 1.000187219262e+006 1.000285933138e+006 1.000299258254e+006 1.000258358235e+006 1.000310083825e+006 1.000317980681e+006 1.000318267327e+006 1.000268099766e+006 1.000167262449e+006 1.000303443448e+006 1.000322272569e+006 1.000322477202e+006 1.000000000000e+006 
        </DataArray>
        <DataArray type="Float64" Name="MOLAR_FRACTION" format="ascii">
          2.111318859727e-005 1.437617704728e-005 1.105670886693e-005 1.092118508569e-004 1.089202986366e-004 1.089787005875e-004 1.068308775817e-004 1.062900557440e-004 1.072223666309e-004 1.059254296159e-004 1.071782711985e-004 1.069897331775e-004 1.062149245181e-004 1.072850781580e-004 1.071269637537e-004 9.201396443900e-005 9.251816734391e-005 9.380267643532e-005 9.275741614992e-005 9.201311784415e-005 9.275722415845e-005 1.036740714232e-004 1.051913777951e-004 1.055898371682e-004 9.484658493969e-005 9.415761335967e-005 9.640162447917e-005 9.295245601807e-005 9.483830838010e-005 9.294947690187e-005 7.009997828634e-005 7.742613662216e-005 8.103044623772e-005 1.016533560196e-004 1.011757842397e-004 9.861605558885e-005 1.016267642617e-004 9.846590593435e-005 7.008607498028e-005 8.052426242433e-005 7.142723608436e-005 6.134710650309e-005 6.764761637157e-005 6.024060285938e-005 7.138288667005e-005 6.133078215238e-005 6.022651514744e-005 5.128594470229e-005 5.769392499243e-005 5.014272140242e-005 5.127909560198e-005 5.010232999114e-005 4.122791811127e-005 4.617958902095e-005 3.901558234203e-005 4.122489074233e-005 3.946730342581e-005 3.117071666490e-005 3.116936595994e-005 2.881517709316e-005 8.726183587429e-005 8.658804790053e-005 8.401197215590e-005 1.014294971543e-004 1.041231341920e-004 1.040115261501e-004 1.049286474720e-004 1.050877636317e-004 1.036429046896e-004 1.028047358404e-004 1.053174439146e-004 1.034631347823e-004 1.047865483155e-004 1.022988448271e-004 1.032121358448e-004 1.033227945291e-004 1.024926142974e-004 1.012400868605e-004 1.016299806148e-004 1.016071592336e-004 1.025317594490e-004 9.918672863207e-005 9.839196924850e-005 9.998319223131e-005 9.691860863598e-005 9.999839534308e-005 9.798062955139e-005 9.099176808585e-005 8.981649749950e-005 8.941625400102e-005 9.128540835169e-005 9.053210817058e-005 9.231684456651e-005 9.736833229697e-005 9.500656868375e-005 9.630966982286e-005 9.410236916600e-005 9.319488602114e-005 8.856510585919e-005 9.099053461091e-005 8.942907664341e-005 9.128596501305e-005 9.231638603558e-005 9.410499231674e-005 9.319582444690e-005 9.609449445101e-005 9.736450525360e-005 9.630150252040e-005 9.589278066625e-005 1.008096124257e-004 1.023407214750e-004 1.033459079905e-004 1.025446937318e-004 1.016585393929e-004 1.016269217016e-004 9.976295802333e-005 9.688409569038e-005 9.836411816924e-005 8.488395935378e-005 8.723005657767e-005 8.465775242019e-005 8.778751471980e-005 1.018708196969e-004 1.015007932716e-004 1.040565797141e-004 1.037129055510e-004 1.038780635519e-004 1.051121385898e-004 1.036139724007e-004 1.051812169754e-004 1.048819481027e-004 1.029335875438e-004 1.054281110317e-004 8.036892197760e-005 8.329775982149e-005 1.016197339986e-004 1.016071846574e-004 9.546401597023e-005 9.545724789987e-005 1.054339256122e-004 1.078390843692e-004 3.402558977156e-005 2.352903289714e-005 1.411861613851e-005 9.624181738105e-005 9.627180256564e-005 2.617004834023e-005 9.875469472267e-005 9.859391434440e-005 9.638335086748e-005 9.783051567099e-005 9.741100385416e-005 9.637646704946e-005 9.782659568018e-005 9.739773337236e-005 9.838596495981e-005 1.004409491070e-004 1.004379099992e-004 8.034185182386e-005 2.111377881747e-005 1.083750323024e-004 1.240993641604e-005 1.000000000000e-006 9.737537277709e-005 9.748572861801e-005 1.034957607545e-004 9.812988993255e-005 9.185485735998e-005 9.712617029140e-005 8.669868529273e-005 1.049340324941e-004 9.779846505924e-005 9.755658941265e-005 9.682780049255e-005 1.105690321954e-005 1.000000000000e-006 1.015537570629e-004 1.000000000000e-006 1.011941620174e-004 1.012043854825e-004 1.078179570158e-004 9.974224885655e-005 9.709265854200e-005 1.085651368713e-004 1.073850547820e-004 8.869527673305e-005 1.031354023896e-004 1.013682530979e-004 1.046563715939e-004 8.734398189521e-005 1.029322169338e-004 1.060127840846e-004 1.051449231051e-004 8.867506831168e-005 1.037662899651e-004 1.055903396393e-004 1.000872927168e-004 1.068458019710e-004 1.082305621860e-004 1.082824567803e-004 1.015140754719e-004 8.354495870057e-005 1.059977616613e-004 1.089839424138e-004 1.090201218377e-004 1.000000000000e-006 
        </DataArray>
        <DataArray type="Float64" Name="SATURATION" format="ascii">