<?xml version="1.0"?>
<VTKFile type="UnstructuredGrid" version="0.1" byte_order="LittleEndian">
  <UnstructuredGrid>
    <Piece NumberOfPoints="2604" NumberOfCells="4910">
      <Points>
        <DataArray type="Float64" NumberOfComponents="3" format="ascii">
          0.000000000000e+000 0.000000000000e+000 0.000000000000e+000
          2.000000000000e+002 0.000000000000e+000 0.000000000000e+000
          2.000000000000e+002 2.000000000000e+001 0.000000000000e+000
          0.000000000000e+000 2.000000000000e+001 0.000000000000e+000
          1.492537313427e+000 0.000000000000e+000 0.000000000000e+000
          2.985074626854e+000 0.000000000000e+000 0.000000000000e+000
          4.477611940281e+000 0.000000000000e+000 0.000000000000e+000
          5.970149253708e+000 0.000000000000e+000 0.000000000000e+000
          7.462686567135e+000 0.000000000000e+000 0.000000000000e+000
          8.955223880561e+000 0.000000000000e+000 0.000000000000e+000
          1.044776119399e+001 0.000000000000e+000 0.000000000000e+000
          1.194029850741e+001 0.000000000000e+000 0.000000000000e+000
          1.343283582084e+001 0.000000000000e+000 0.000000000000e+000
          1.492537313427e+001 0.000000000000e+000 0.000000000000e+000
          1.641791044770e+001 0.000000000000e+000 0.000000000000e+000
          1.791044776112e+001 0.000000000000e+000 0.000000000000e+000
          1.940298507455e+001 0.000000000000e+000 0.000000000000e+000
          2.089552238798e+001 0.000000000000e+000 0.000000000000e+000
          2.238805970141e+001 0.000000000000e+000 0.000000000000e+000
          2.388059701484e+001 0.000000000000e+000 0.000000000000e+000
          2.537313432826e+001 0.000000000000e+000 0.000000000000e+000
          2.686567164169e+001 0.000000000000e+000 0.000000000000e+000
          2.835820895511e+001 0.000000000000e+000 0.000000000000e+000
          2.985074626854e+001 0.000000000000e+000 0.000000000000e+000
          3.134328358196e+001 0.000000000000e+000 0.000000000000e+000
          3.283582089539e+001 0.000000000000e+000 0.000000000000e+000
          3.432835820881e+001 0.000000000000e+000 0.000000000000e+000
          3.582089552224e+001 0.000000000000e+000 0.000000000000e+000
          3.731343283566e+001 0.000000000000e+000 0.000000000000e+000
          3.880597014909e+001 0.000000000000e+000 0.000000000000e+000
          4.029850746251e+001 0.000000000000e+000 0.000000000000e+000
          4.179104477594e+001 0.000000000000e+000 0.000000000000e+000
          4.328358208936e+001 0.000000000000e+000 0.000000000000e+000
          4.477611940279e+001 0.000000000000e+000 0.000000000000e+000
          4.626865671621e+001 0.000000000000e+000 0.000000000000e+000
          4.776119402964e+001 0.000000000000e+000 0.000000000000e+000
          4.925373134306e+001 0.000000000000e+000 0.000000000000e+000
          5.074626865649e+001 0.000000000000e+000 0.000000000000e+000
          5.223880596991e+001 0.000000000000e+000 0.000000000000e+000
          5.373134328334e+001 0.000000000000e+000 0.000000000000e+000
          5.522388059676e+001 0.000000000000e+000 0.000000000000e+000
          5.671641791019e+001 0.000000000000e+000 0.000000000000e+000
          5.820895522361e+001 0.000000000000e+000 0.000000000000e+000
          5.970149253704e+001 0.000000000000e+000 0.000000000000e+000
          6.119402985046e+001 0.000000000000e+000 0.000000000000e+000
          6.268656716389e+001 0.000000000000e+000 0.000000000000e+000
          6.417910447732e+001 0.000000000000e+000 0.000000000000e+000
          6.567164179075e+001 0.000000000000e+000 0.000000000000e+000
          6.716417910418e+001 0.000000000000e+000 0.000000000000e+000
          6.865671641761e+001 0.000000000000e+000 0.000000000000e+000
          7.014925373104e+001 0.000000000000e+000 0.000000000000e+000
          7.164179104447e+001 0.000000000000e+000 0.000000000000e+000
          7.313432835790e+001 0.000000000000e+000 0.000000000000e+000
          7.462686567133e+001 0.000000000000e+000 0.000000000000e+000
          7.611940298476e+001 0.000000000000e+000 0.000000000000e+000
          7.761194029819e+001 0.000000000000e+000 0.000000000000e+000
          7.910447761162e+001 0.000000000000e+000 0.000000000000e+000
          8.059701492505e+001 0.000000000000e+000 0.000000000000e+000
          8.208955223848e+001 0.000000000000e+000 0.000000000000e+000
          8.358208955191e+001 0.000000000000e+000 0.000000000000e+000
          8.507462686534e+001 0.000000000000e+000 0.000000000000e+000
          8.656716417877e+001 0.000000000000e+000 0.000000000000e+000
          8.805970149220e+001 0.000000000000e+000 0.000000000000e+000
          8.955223880563e+001 0.000000000000e+000 0.000000000000e+000
          9.104477611907e+001 0.000000000000e+000 0.000000000000e+000
          9.253731343250e+001 0.000000000000e+000 0.000000000000e+000
          9.402985074593e+001 0.000000000000e+000 0.000000000000e+000
          9.552238805936e+001 0.000000000000e+000 0.000000000000e+000
          9.701492537279e+001 0.000000000000e+000 0.000000000000e+000
          9.850746268622e+001 0.000000000000e+000 0.000000000000e+000
          9.999999999965e+001 0.000000000000e+000 0.000000000000e+000
          1.014925373131e+002 0.000000000000e+000 0.000000000000e+000
          1.029850746265e+002 0.000000000000e+000 0.000000000000e+000
          1.044776119399e+002 0.000000000000e+000 0.000000000000e+000
          1.059701492534e+002 0.000000000000e+000 0.000000000000e+000
          1.074626865668e+002 0.000000000000e+000 0.000000000000e+000
          1.089552238802e+002 0.000000000000e+000 0.000000000000e+000
          1.104477611937e+002 0.000000000000e+000 0.000000000000e+000
          1.119402985071e+002 0.000000000000e+000 0.000000000000e+000
          1.134328358205e+002 0.000000000000e+000 0.000000000000e+000
          1.149253731340e+002 0.000000000000e+000 0.000000000000e+000
          1.164179104474e+002 0.000000000000e+000 0.000000000000e+000
          1.179104477608e+002 0.000000000000e+000 0.000000000000e+000
          1.194029850742e+002 0.000000000000e+000 0.000000000000e+000
          1.208955223877e+002 0.000000000000e+000 0.000000000000e+000
          1.223880597011e+002 0.000000000000e+000 0.000000000000e+000
          1.238805970145e+002 0.000000000000e+000 0.000000000000e+000
          1.253731343280e+002 0.000000000000e+000 0.000000000000e+000
          1.268656716414e+002 0.000000000000e+000 0.000000000000e+000
          1.283582089548e+002 0.000000000000e+000 0.000000000000e+000
          1.298507462683e+002 0.000000000000e+000 0.000000000000e+000
          1.313432835817e+002 0.000000000000e+000 0.000000000000e+000
          1.328358208952e+002 0.000000000000e+000 0.000000000000e+000
          1.343283582086e+002 0.000000000000e+000 0.000000000000e+000
          1.358208955220e+002 0.000000000000e+000 0.000000000000e+000
          1.373134328355e+002 0.000000000000e+000 0.000000000000e+000
          1.388059701489e+002 0.000000000000e+000 0.000000000000e+000
          1.402985074624e+002 0.000000000000e+000 0.000000000000e+000
          1.417910447758e+002 0.000000000000e+000 0.000000000000e+000
          1.432835820892e+002 0.000000000000e+000 0.000000000000e+000
          1.447761194027e+002 0.000000000000e+000 0.000000000000e+000
          1.462686567161e+002 0.000000000000e+000 0.000000000000e+000
          1.477611940296e+002 0.000000000000e+000 0.000000000000e+000
          1.492537313430e+002 0.000000000000e+000 0.000000000000e+000
          1.507462686564e+002 0.000000000000e+000 0.000000000000e+000
          1.522388059699e+002 0.000000000000e+000 0.000000000000e+000
          1.537313432833e+002 0.000000000000e+000 0.000000000000e+000
          1.552238805968e+002 0.000000000000e+000 0.000000000000e+000
          1.567164179102e+002 0.000000000000e+000 0.000000000000e+000
          1.582089552237e+002 0.000000000000e+000 0.000000000000e+000
          1.597014925371e+002 0.000000000000e+000 0.000000000000e+000
          1.611940298505e+002 0.000000000000e+000 0.000000000000e+000
          1.626865671640e+002 0.000000000000e+000 0.000000000000e+000
          1.641791044774e+002 0.000000000000e+000 0.000000000000e+000
          1.656716417909e+002 0.000000000000e+000 0.000000000000e+000
          1.671641791043e+002 0.000000000000e+000 0.000000000000e+000
          1.686567164177e+002 0.000000000000e+000 0.000000000000e+000
          1.701492537312e+002 0.000000000000e+000 0.000000000000e+000
          1.716417910446e+002 0.000000000000e+000 0.000000000000e+000
          1.731343283581e+002 0.000000000000e+000 0.000000000000e+000
          1.746268656715e+002 0.000000000000e+000 0.000000000000e+000
          1.761194029849e+002 0.000000000000e+000 0.000000000000e+000
          1.776119402984e+002 0.000000000000e+000 0.000000000000e+000
          1.791044776118e+002 0.000000000000e+000 0.000000000000e+000
          1.805970149253e+002 0.000000000000e+000 0.000000000000e+000
          1.820895522387e+002 0.000000000000e+000 0.000000000000e+000
          1.835820895521e+002 0.000000000000e+000 0.000000000000e+000
          1.850746268656e+002 0.000000000000e+000 0.000000000000e+000
          1.865671641790e+002 0.000000000000e+000 0.000000000000e+000
          1.880597014925e+002 0.000000000000e+000 0.000000000000e+000
          1.895522388059e+002 0.000000000000e+000 0.000000000000e+000
          1.910447761194e+002 0.000000000000e+000 0.000000000000e+000
          1.925373134328e+002 0.000000000000e+000 0.000000000000e+000
          1.940298507462e+002 0.000000000000e+000 0.000000000000e+000
          1.955223880597e+002 0.000000000000e+000 0.000000000000e+000
          1.970149253731e+002 0.000000000000e+000 0.000000000000e+000
          1.985074626866e+002 0.000000000000e+000 0.000000000000e+000
          2.000000000000e+002 1.428571428570e+000 0.000000000000e+000
          2.000000000000e+002 2.857142857140e+000 0.000000000000e+000
[...]
      <PointData Scalars="Capillary_Pressure">
        <DataArray type="Float64" Name="Capillary_Pressure" format="ascii">
          3.504024632987e+005 0.000000000000e+000 0.000000000000e+000 3.504090372885e+005 3.506895706037e+005 3.475429309444e+005 3.466341035713e+005 3.444758416638e+005 3.441988495320e+005 3.420912211170e+005 3.398764623777e+005 3.398246429694e+005 3.374771920178e+005 3.374137071389e+005 3.354097487608e+005 3.328172884631e+005 3.329630635915e+005 3.308308412020e+005 3.305268672453e+005 3.282746099669e+005 3.245612863604e+005 3.245532560581e+005 3.240987598763e+005 3.208640794908e+005 3.207187728065e+005 3.184418597167e+005 3.179877565502e+005 3.146296203183e+005 3.143482300103e+005 3.122439724786e+005 3.118490031723e+005 3.084259129147e+005 3.081621474709e+005 3.061970000390e+005 3.057476962571e+005 3.018591704220e+005 3.021956262117e+005 2.995754553155e+005 2.971287259396e+005 2.972505421642e+005 2.967914340220e+005 2.934893046100e+005 2.909407115103e+005 2.908695466017e+005 2.870873759820e+005 2.870149023618e+005 2.841705455659e+005 2.841570897319e+005 2.818176070223e+005 2.812322524781e+005 2.770823306753e+005 2.773535110166e+005 2.733775251192e+005 2.733112915938e+005 2.692403972432e+005 2.682529598492e+005 2.662749131094e+005 2.663457643125e+005 2.656493682953e+005 2.618656950582e+005 2.586423100965e+005 2.589063694488e+005 2.548757307369e+005 2.546136880295e+005 2.519239442033e+005 2.486261847172e+005 2.458160669135e+005 2.458089409401e+005 2.411115950090e+005 2.400276439649e+005 2.376612031411e+005 2.346712505013e+005 2.345092146920e+005 2.318561527187e+005 2.282491856478e+005 2.250506016922e+005 2.252343280971e+005 2.218855589610e+005 2.188728620309e+005 2.182226767377e+005 2.121926466960e+005 2.091204231429e+005 2.062896742602e+005 2.028329429232e+005 1.995556168322e+005 1.959684682318e+005 1.959983868984e+005 1.927386940075e+005 1.890366305984e+005 1.856960535954e+005 1.780435994642e+005 1.743496628551e+005 1.705752011862e+005 1.663062775674e+005 1.640648994437e+005 1.558702717559e+005 1.513329491574e+005 1.493355114483e+005 1.402829002811e+005 1.335544728852e+005 1.307837331393e+005 1.188624467163e+005 1.114430836542e+005 1.031586090547e+005 9.227341769452e+004 8.025291896898e+004 6.623299560181e+004 4.731614322311e+004 2.358705996699e+004 0.000000000000e+000 0.000000000000e+000 0.000000000000e+000 0.000000000000e+000 0.000000000000e+000 0.000000000000e+000 0.000000000000e+000 0.000000000000e+000 0.000000000000e+000 0.000000000000e+000 0.000000000000e+000 0.000000000000e+000 0.000000000000e+000 0.000000000000e+000 0.000000000000e+000 0.000000000000e+000 0.000000000000e+000 0.000000000000e+000 0.000000000000e+000 0.000000000000e+000 0.000000000000e+000 0.000000000000e+000 0.000000000000e+000 0.000000000000e+000 0.000000000000e+000 0.000000000000e+000 0.000000000000e+000 0.000000000000e+000 0.000000000000e+000 0.000000000000e+000 0.000000000000e+000 0.000000000000e+000 0.000000000000e+000 0.000000000000e+000 0.000000000000e+000 0.000000000000e+000 0.000000000000e+000 0.000000000000e+000 0.000000000000e+000 0.000000000000e+000 0.000000000000e+000 0.000000000000e+000 0.000000000000e+000 0.000000000000e+000 0.000000000000e+000 0.000000000000e+000 0.000000000000e+000 0.000000000000e+000 0.000000000000e+000 0.000000000000e+000 0.000000000000e+000 0.000000000000e+000 0.000000000000e+000 0.000000000000e+000 0.000000000000e+000 0.000000000000e+000 0.000000000000e+000 0.000000000000e+000 0.000000000000e+000 0.000000000000e+000 0.000000000000e+000 0.000000000000e+000 0.000000000000e+000 0.000000000000e+000 0.000000000000e+000 0.000000000000e+000 0.000000000000e+000 0.000000000000e+000 0.000000000000e+000 2.355763078208e+004 4.732653830539e+004 6.623537639495e+004 8.029504768820e+004 9.226166125424e+004 1.031638260540e+005 1.114474703745e+005 1.188432543313e+005 1.307774377163e+005 1.335514816835e+005 1.402599530859e+005 1.493128644327e+005 1.513263596998e+005 1.558683488271e+005 1.640488784098e+005 1.662782442445e+005 1.705660494925e+005 1.743104982889e+005 1.780196750566e+005 1.857423992617e+005 1.890179733427e+005 1.927113342120e+005 1.959833461424e+005 1.959660063716e+005 1.995506799316e+005 2.028683867456e+005 2.063136987590e+005 2.091184003485e+005 2.121857393980e+005 2.181884082869e+005 2.188723816615e+005 2.219233225520e+005 2.252301868022e+005 2.250315368152e+005 2.282425604911e+005 2.318514080769e+005 2.345278563766e+005 2.376401162421e+005 2.376532985965e+005 2.400319764137e+005 2.410666357164e+005 2.458248990734e+005 2.488200703824e+005 2.486924999087e+005 2.518175602887e+005 2.546312475481e+005 2.548923580229e+005 2.589031085254e+005 2.586538686832e+005 2.619237452538e+005 2.656449016273e+005 2.663513623011e+005 2.663137166459e+005 2.682639669009e+005 2.727884700441e+005 2.733272753197e+005 2.733619692415e+005 2.773713286459e+005 2.771060439249e+005 2.812315372417e+005 2.817876063056e+005 2.841285428734e+005 2.841157251111e+005 2.869819533379e+005 2.903619555523e+005 2.908597971065e+005 2.908598920938e+005 2.935051330487e+005 2.967528167331e+005 2.972700527639e+005 2.971124983029e+005 2.995363531733e+005 3.022154678843e+005 3.018547430607e+005 3.057537706678e+005 3.061853067363e+005 3.081575828153e+005 3.084211493774e+005 3.118543379349e+005 3.122406069050e+005 3.143495605144e+005 3.146125093663e+005 3.180028743691e+005 3.184280691770e+005 3.207062259910e+005 3.208719477283e+005 3.241025086375e+005 3.245374880345e+005 3.245559238729e+005 3.282682339309e+005 3.305188478789e+005 3.308167626562e+005 3.329635178607e+005 3.328597294180e+005 3.352580147963e+005 3.352768544308e+005 3.374534277755e+005 3.398616829689e+005 3.398174790031e+005 3.421212616278e+005 3.441962725929e+005 3.444790822259e+005 3.465933132110e+005 3.475575135875e+005 3.506840585881e+005 3.504109686684e+005 3.504108748790e+005 3.504074861415e+005 3.504085353608e+005 3.504050645047e+005 3.504057606400e+005 3.504051989806e+005 3.504013385470e+005 3.504059104153e+005 3.504114829188e+005 3.504023267334e+005 3.504076213366e+005 3.504066353275e+005 0.000000000000e+000 3.421128010833e+005 0.000000000000e+000 0.000000000000e+000 0.000000000000e+000 1.077622252916e+005 1.563575326237e+005 3.244077614361e+005 1.848507040836e+005 3.121499430973e+005 3.023449128743e+005 2.909944302060e+005 2.731678449535e+005 2.593283542792e+005 2.455602965899e+005 2.282305786939e+005 2.098843292689e+005 3.331095770913e+005 2.817825260986e+005 1.959761981279e+005 1.994825992165e+005 2.188506965123e+005 2.377375555431e+005 2.517960349679e+005 2.663558669508e+005 0.000000000000e+000 0.000000000000e+000 6.445757302442e+004 2.663473715341e+005 2.519493866047e+005 2.375522350475e+005 2.182701016845e+005 1.334338780305e+005 1.705264039995e+005 3.184393418599e+005 3.081942972307e+005 2.972164962656e+005 1.706043777214e+005 1.335400520073e+005 6.620644480922e+004 0.000000000000e+000 0.000000000000e+000 2.972946778690e+005 3.081615133935e+005 3.184342753022e+005 0.000000000000e+000 0.000000000000e+000 2.841863551367e+005 2.775974376155e+005 3.373591516359e+005 3.282118096919e+005 0.000000000000e+000 3.444631264948e+005 0.000000000000e+000 3.444854879890e+005 3.370803008628e+005 3.282792340862e+005 2.870683485429e+005 2.771731270720e+005 0.000000000000e+000 2.099283245137e+005 0.000000000000e+000 2.282063395837e+005 2.455750200411e+005 2.593377837863e+005 2.728849645328e+005 1.848625813052e+005 0.000000000000e+000 1.067515734778e+005 1.564701532232e+005 3.121538491927e+005 3.023570842297e+005 1.859680959620e+005 1.565297340866e+005 1.077392438240e+005 0.000000000000e+000 2.593393345272e+005 2.455687469405e+005 2.282193837392e+005 0.000000000000e+000 2.098492466913e+005 0.000000000000e+000 2.910295149994e+005 3.023136705441e+005 3.121426650032e+005 3.244229694429e+005 0.000000000000e+000 0.000000000000e+000 3.398260584372e+005 3.241152944147e+005 2.691446910499e+005 2.932509102194e+005 0.000000000000e+000 3.466610127113e+005 3.331038980011e+005 3.420723477066e+005 3.331326755356e+005 2.814568994824e+005 2.870133126534e+005 2.774784569357e+005 3.375108775830e+005 3.282395134198e+005 2.817897118769e+005 0.000000000000e+000 5.065260918099e+004 0.000000000000e+000 1.308122781474e+005 0.000000000000e+000 1.666643292096e+005 2.182283454378e+005 2.489251318997e+005 2.622364002281e+005 2.346589029854e+005 3.180067304131e+005 2.970932436702e+005 3.078991153475e+005 1.994989422027e+005 2.818278573057e+005 0.000000000000e+000 3.475368750633e+005 0.000000000000e+000 3.475407644165e+005 2.133772239358e+005 2.313642836349e+005 2.490909406459e+005 2.619952384852e+005 1.786357018768e+005 2.031344456595e+005 1.922363797690e+005 1.456957704572e+005 2.934840234873e+005 8.499822034278e+004 3.060935346085e+005 0.000000000000e+000 3.147839348284e+005 0.000000000000e+000 0.000000000000e+000 0.000000000000e+000 0.000000000000e+000 0.000000000000e+000 8.607868452539e+004 4.031319953450e+004 1.457778366858e+005 1.269077305021e+005 3.147607785157e+005 1.676203493095e+005 1.786373405332e+005 3.060747840329e+005 3.085009684184e+005 2.619075256309e+005 2.490951356694e+005 2.314347102940e+005 2.547978171627e+005 2.378307670870e+005 2.180224129348e+005 2.211405887915e+005 2.971577806129e+005 1.922952979754e+005 2.030228435025e+005 0.000000000000e+000 3.208233965126e+005 0.000000000000e+000 3.084601386422e+005 4.384332744983e+004 2.972083722119e+005 1.260342548730e+005 2.687645863706e+005 2.548900725197e+005 2.379095591025e+005 2.248340482462e+005 1.677383847649e+005 3.330670609945e+005 0.000000000000e+000 0.000000000000e+000 2.770997187629e+005 2.899603904140e+005 3.281553559642e+005 1.923168151806e+005 2.378311855002e+005 2.210692016058e+005 2.547354973284e+005 2.687587385157e+005 3.208048442090e+005 3.060891387170e+005 0.000000000000e+000 2.934462435439e+005 0.000000000000e+000 8.727250750616e+004 1.785822372743e+005 1.410767548839e+005 3.206980049651e+005 0.000000000000e+000 0.000000000000e+000 2.810197002454e+005 3.374807903424e+005 0.000000000000e+000 1.926258936697e+005 1.820371892853e+005 1.493875598422e+005 2.933630538216e+005 9.325167543803e+004 3.056918181869e+005 2.548745386877e+005 2.399652539776e+005 2.252983397732e+005 0.000000000000e+000 3.208622487178e+005 0.000000000000e+000 3.306371957042e+005 2.688227165357e+005 0.000000000000e+000 0.000000000000e+000 0.000000000000e+000 2.662387937699e+005 2.967331787842e+005 2.733722682069e+005 2.903736334663e+005 3.442261764403e+005 3.245460264522e+005 3.398110370057e+005 3.352397578976e+005 3.245270339735e+005 2.121495737778e+005 2.318433265445e+005 2.488575555707e+005 2.618857599953e+005 0.000000000000e+000 3.146096265527e+005 0.000000000000e+000 2.028868142662e+005 1.640912857966e+005 0.000000000000e+000 1.187778041044e+005 0.000000000000e+000 2.359308249753e+004 2.128797728593e+005 2.318897699362e+005 2.488300835395e+005 2.618865989542e+005 3.145279608149e+005 2.995248295048e+005 3.118444014249e+005 3.118391648206e+005 2.195884177567e+004 2.989869764645e+005 1.187884600064e+005 1.640370133075e+005 2.028902529976e+005 0.000000000000e+000 0.000000000000e+000 3.475430612761e+005 3.475634840305e+005 0.000000000000e+000 3.437097110343e+005 0.000000000000e+000 0.000000000000e+000 3.421334084023e+005 0.000000000000e+000 3.397803977045e+005 3.437139134090e+005 2.905575579746e+005 2.728338641665e+005 3.239697913536e+005 3.397085521824e+005 2.908869041052e+005 3.307073182982e+005 3.308416081587e+005 2.732855970717e+005 3.351526799532e+005 2.869161911674e+005 2.810600117283e+005 3.352878601941e+005 3.059826242001e+005 1.778048970729e+005 1.445361628041e+005 8.970041545706e+004 0.000000000000e+000 0.000000000000e+000 1.928396248315e+005 2.688987626306e+005 2.543377106382e+005 2.407807146908e+005 2.251012569760e+005 2.843533584308e+005 3.307938655949e+005 2.775581356270e+005 2.836953288533e+005 0.000000000000e+000 0.000000000000e+000 3.204213977148e+005 2.964721071653e+005 3.421521391429e+005 3.444136138143e+005 0.000000000000e+000 3.351989584669e+005 2.095461780414e+005 2.312190318392e+005 2.458109453334e+005 2.586234349541e+005 1.857111499589e+005 1.854331839284e+005 2.061689538963e+005 1.513023556051e+005 1.050586579761e+005 2.909054363990e+005 0.000000000000e+000 3.022764192471e+005 0.000000000000e+000 3.143746335789e+005 0.000000000000e+000 0.000000000000e+000 0.000000000000e+000 1.050055221610e+005 1.527263725257e+005 3.144019122806e+005 3.022800811571e+005 2.586246430976e+005 2.458360924844e+005 2.312623639299e+005 0.000000000000e+000 3.240950108203e+005 2.691952394401e+005 0.000000000000e+000 0.000000000000e+000 0.000000000000e+000 3.209466655249e+005 3.246452562035e+005 3.397656210383e+005 2.812201767452e+005 0.000000000000e+000 0.000000000000e+000 7.328924366927e+004 1.372575334606e+005 1.749981226141e+005 3.183917982203e+005 3.059871563415e+005 2.969926993489e+005 2.184816706987e+005 2.517781147803e+005 2.665226760536e+005 2.379155474826e+005 1.961209417198e+005 0.000000000000e+000 0.000000000000e+000 0.000000000000e+000 0.000000000000e+000 1.086215750634e+005 1.563920180484e+005 3.023762629407e+005 2.593075955622e+005 2.453634204090e+005 2.281080565504e+005 3.469138370080e+005 2.842661580028e+005 1.858890845369e+005 1.851076166998e+005 2.728966119744e+005 0.000000000000e+000 3.505243889791e+005 2.934018434522e+005 2.683546320237e+005 1.706344282292e+005 1.335823717974e+005 6.620641736440e+004 0.000000000000e+000 0.000000000000e+000 2.972595448161e+005 3.081357621818e+005 3.184341062040e+005 2.376392811222e+005 2.188784326727e+005 2.663560864914e+005 2.518918708830e+005 0.000000000000e+000 0.000000000000e+000 2.518377722499e+005 2.376026561564e+005 6.618732903036e+004 2.188806947802e+005 1.335581466931e+005 1.705813184061e+005 3.081421822462e+005 1.959398708259e+005 1.959606308975e+005 3.305239420640e+005 2.871938219326e+005 3.329432811424e+005 2.664768608906e+005 2.817224649262e+005 0.000000000000e+000 0.000000000000e+000 2.773074539426e+005 2.736102801394e+005 2.815018901248e+005 1.811063815800e+005 2.099021407754e+005 2.066120702215e+005 1.881132518133e+005 2.245208300204e+005 2.409652192623e+005 2.586992020973e+005 1.588602038490e+005 3.121534470325e+005 3.019854985798e+005 0.000000000000e+000 6.456409741674e+003 1.150671618956e+005 0.000000000000e+000 3.121470946921e+005 6.580634568780e+003 3.019663398191e+005 2.586561725161e+005 2.409112582220e+005 2.248691123885e+005 1.150838144601e+005 1.588747053296e+005 3.470047498803e+005 3.396722151229e+005 0.000000000000e+000 3.470132926499e+005 2.099379432370e+005 2.099111246405e+005 3.121453020455e+005 3.121717562645e+005 0.000000000000e+000 0.000000000000e+000 0.000000000000e+000 3.351227637291e+005 3.420841800142e+005 3.240940815106e+005 3.331613627293e+005 0.000000000000e+000 3.505155224701e+005 0.000000000000e+000 3.505198199436e+005 3.373322483892e+005 0.000000000000e+000 0.000000000000e+000 1.565447822889e+005 1.077388454936e+005 3.023577959799e+005 2.280387840641e+005 2.593452010423e+005 2.455866283974e+005 0.000000000000e+000 3.283097088423e+005 3.283048909726e+005 3.397927571972e+005 2.734172299662e+005 2.906193021467e+005 3.398361075236e+005 3.244529308463e+005 3.183771542750e+005 2.869597780820e+005 3.278921258406e+005 0.000000000000e+000 0.000000000000e+000 2.899358077703e+005 2.734962320586e+005 0.000000000000e+000 2.909977171086e+005 2.733977353816e+005 2.773856465920e+005 0.000000000000e+000 3.208239880007e+005 0.000000000000e+000 2.548637625202e+005 2.399527971505e+005 2.252884031514e+005 1.890278892493e+005 3.060763426793e+005 8.504682791474e+004 2.962606665721e+005 1.457313330210e+005 1.820507686923e+005 0.000000000000e+000 3.308553979601e+005 2.776116186837e+005 2.840087449882e+005 2.910473860025e+005 3.352348862359e+005 0.000000000000e+000 3.505023809384e+005 0.000000000000e+000 3.506725722888e+005 3.421813726106e+005 3.244117499997e+005 2.818222707993e+005 2.869984675229e+005 0.000000000000e+000 2.973668671608e+005 2.661077285977e+005 3.283140246930e+005 2.734144905262e+005 3.330862191631e+005 1.676533563125e+005 1.254277794007e+005 4.194389175607e+004 2.971968606781e+005 3.085322628992e+005 2.022653224139e+004 0.000000000000e+000 1.187304844648e+005 0.000000000000e+000 1.639600104117e+005 3.118754545840e+005 2.989718813278e+005 3.139758158252e+005 2.618734985665e+005 2.318895751195e+005 2.458038889916e+005 2.132215260092e+005 0.000000000000e+000 0.000000000000e+000 3.147439723228e+005 2.030554990529e+005 2.620364408586e+005 2.491221820054e+005 2.314107314654e+005 2.180113138101e+005 2.028429533793e+005 1.959527635803e+005 2.188783746594e+005 2.519500352185e+005 2.377202006517e+005 2.663476523207e+005 0.000000000000e+000 0.000000000000e+000 6.615137769561e+004 1.705486937848e+005 1.335168868999e+005 3.184379739516e+005 3.081225828992e+005 2.972566595957e+005 2.906306382090e+005 3.245693807369e+005 0.000000000000e+000 3.421957317291e+005 2.030003100088e+005 2.130936143327e+005 2.318137845201e+005 2.486731162068e+005 2.618255107419e+005 0.000000000000e+000 0.000000000000e+000 3.139058451433e+005 1.696827040407e+004 1.186576037633e+005 1.638390391450e+005 3.120481690171e+005 2.990315861640e+005 2.811188571004e+005 0.000000000000e+000 2.842523690087e+005 0.000000000000e+000 1.995769441804e+005 1.959419299082e+005 2.188001942775e+005 2.374158017920e+005 2.517351606527e+005 2.661515515054e+005 0.000000000000e+000 0.000000000000e+000 6.804299272805e+004 1.381349902452e+005 1.701619569857e+005 3.081056646456e+005 1.705394163992e+005 2.518676688534e+005 2.346685522121e+005 2.188032838977e+005 1.336002938096e+005 6.621958771526e+004 2.972601725265e+005 0.000000000000e+000 3.081248912610e+005 0.000000000000e+000 3.184340605360e+005 3.330891836913e+005 0.000000000000e+000 3.181992183061e+005 0.000000000000e+000 2.488523487359e+005 2.182515091927e+005 2.343529039829e+005 2.621708266327e+005 3.078517399601e+005 5.223716682798e+004 2.967688170734e+005 1.290957701934e+005 1.668142683343e+005 1.993373175651e+005 3.421331328061e+005 0.000000000000e+000 3.505117623593e+005 0.000000000000e+000 0.000000000000e+000 0.000000000000e+000 2.843596243027e+005 2.776800964620e+005 3.284275933986e+005 3.184019894712e+005 0.000000000000e+000 3.416876119208e+005 0.000000000000e+000 0.000000000000e+000 3.245015217261e+005 1.820962720855e+005 1.494651821862e+005 2.934856588862e+005 9.808866758203e+004 3.057042292429e+005 2.252306824615e+005 2.399782375431e+005 2.548663818907e+005 1.889760805826e+005 0.000000000000e+000 3.209032504951e+005 0.000000000000e+000 2.910274349494e+005 2.729211095862e+005 2.841517747801e+005 3.374665833477e+005 3.397806977717e+005 0.000000000000e+000 3.466841662971e+005 0.000000000000e+000 3.466814615665e+005 2.660800030337e+005 2.973642368004e+005 2.683226401754e+005 3.352304096946e+005 0.000000000000e+000 3.469041730140e+005 2.871249942121e+005 2.775959133901e+005 2.842236581921e+005 3.283994839890e+005 3.373911771364e+005 3.329048321159e+005 2.935039484465e+005 3.373786878986e+005 3.308776052762e+005 2.844065572500e+005 3.398567558402e+005 3.375118991648e+005 2.815785811742e+005 2.902655984011e+005 2.774963447622e+005 2.870039468217e+005 0.000000000000e+000 3.442047188953e+005 3.208929366073e+005 1.961836265725e+005 1.881661872962e+005 0.000000000000e+000 0.000000000000e+000 0.000000000000e+000 0.000000000000e+000 9.330974179562e+004 1.494211145948e+005 3.056826533159e+005 1.741615631725e+005 1.810941066048e+005 2.662759755060e+005 2.684195806784e+005 2.545126253040e+005 2.586870953734e+005 2.408850305153e+005 2.370761475449e+005 2.219825443838e+005 2.254799088508e+005 3.444611651244e+005 0.000000000000e+000 0.000000000000e+000 0.000000000000e+000 0.000000000000e+000 3.470336469458e+005 0.000000000000e+000 2.132618101168e+005 2.313959556472e+005 2.490601154119e+005 2.611768857283e+005 2.031099032183e+005 1.918625627234e+005 1.786676365652e+005 1.458236523147e+005 2.934310809152e+005 8.607935441243e+004 3.060331574237e+005 0.000000000000e+000 3.147201298602e+005 0.000000000000e+000 0.000000000000e+000 0.000000000000e+000 0.000000000000e+000 8.611921832653e+004 1.45827