<?xml version="1.0"?>
<VTKFile type="UnstructuredGrid" version="0.1" byte_order="LittleEndian">
  <UnstructuredGrid>
    <Piece NumberOfPoints="2604" NumberOfCells="4910">
      <Points>
        <DataArray type="Float64" NumberOfComponents="3" format="ascii">
          0.000000000000e+000 0.000000000000e+000 0.000000000000e+000
          2.000000000000e+002 0.000000000000e+000 0.000000000000e+000
          2.000000000000e+002 2.000000000000e+001 0.000000000000e+000
          0.000000000000e+000 2.000000000000e+001 0.000000000000e+000
          1.492537313427e+000 0.000000000000e+000 0.000000000000e+000
          2.985074626854e+000 0.000000000000e+000 0.000000000000e+000
          4.477611940281e+000 0.000000000000e+000 0.000000000000e+000
          5.970149253708e+000 0.000000000000e+000 0.000000000000e+000
          7.462686567135e+000 0.000000000000e+000 0.000000000000e+000
          8.955223880561e+000 0.000000000000e+000 0.000000000000e+000
          1.044776119399e+001 0.000000000000e+000 0.000000000000e+000
          1.194029850741e+001 0.000000000000e+000 0.000000000000e+000
          1.343283582084e+001 0.000000000000e+000 0.000000000000e+000
          1.492537313427e+001 0.000000000000e+000 0.000000000000e+000
          1.641791044770e+001 0.000000000000e+000 0.000000000000e+000
          1.791044776112e+001 0.000000000000e+000 0.000000000000e+000
          1.940298507455e+001 0.000000000000e+000 0.000000000000e+000
          2.089552238798e+001 0.000000000000e+000 0.000000000000e+000
          2.238805970141e+001 0.000000000000e+000 0.000000000000e+000
          2.388059701484e+001 0.000000000000e+000 0.000000000000e+000
          2.537313432826e+001 0.000000000000e+000 0.000000000000e+000
          2.686567164169e+001 0.000000000000e+000 0.000000000000e+000
          2.835820895511e+001 0.000000000000e+000 0.000000000000e+000
          2.985074626854e+001 0.000000000000e+000 0.000000000000e+000
          3.134328358196e+001 0.000000000000e+000 0.000000000000e+000
          3.283582089539e+001 0.000000000000e+000 0.000000000000e+000
          3.432835820881e+001 0.000000000000e+000 0.000000000000e+000
          3.582089552224e+001 0.000000000000e+000 0.000000000000e+000
          3.731343283566e+001 0.000000000000e+000 0.000000000000e+000
          3.880597014909e+001 0.000000000000e+000 0.000000000000e+000
          4.029850746251e+001 0.000000000000e+000 0.000000000000e+000
          4.179104477594e+001 0.000000000000e+000 0.000000000000e+000
          4.328358208936e+001 0.000000000000e+000 0.000000000000e+000
          4.477611940279e+001 0.000000000000e+000 0.000000000000e+000
          4.626865671621e+001 0.000000000000e+000 0.000000000000e+000
          4.776119402964e+001 0.000000000000e+000 0.000000000000e+000
          4.925373134306e+001 0.000000000000e+000 0.000000000000e+000
          5.074626865649e+001 0.000000000000e+000 0.000000000000e+000
          5.223880596991e+001 0.000000000000e+000 0.000000000000e+000
          5.373134328334e+001 0.000000000000e+000 0.000000000000e+000
          5.522388059676e+001 0.000000000000e+000 0.000000000000e+000
          5.671641791019e+001 0.000000000000e+000 0.000000000000e+000
          5.820895522361e+001 0.000000000000e+000 0.000000000000e+000
          5.970149253704e+001 0.000000000000e+000 0.000000000000e+000
          6.119402985046e+001 0.000000000000e+000 0.000000000000e+000
          6.268656716389e+001 0.000000000000e+000 0.000000000000e+000
          6.417910447732e+001 0.000000000000e+000 0.000000000000e+000
          6.567164179075e+001 0.000000000000e+000 0.000000000000e+000
          6.716417910418e+001 0.000000000000e+000 0.000000000000e+000
          6.865671641761e+001 0.000000000000e+000 0.000000000000e+000
          7.014925373104e+001 0.000000000000e+000 0.000000000000e+000
          7.164179104447e+001 0.000000000000e+000 0.000000000000e+000
          7.313432835790e+001 0.000000000000e+000 0.000000000000e+000
          7.462686567133e+001 0.000000000000e+000 0.000000000000e+000
          7.611940298476e+001 0.000000000000e+000 0.000000000000e+000
          7.761194029819e+001 0.000000000000e+000 0.000000000000e+000
          7.910447761162e+001 0.000000000000e+000 0.000000000000e+000
          8.059701492505e+001 0.000000000000e+000 0.000000000000e+000
          8.208955223848e+001 0.000000000000e+000 0.000000000000e+000
          8.358208955191e+001 0.000000000000e+000 0.000000000000e+000
          8.507462686534e+001 0.000000000000e+000 0.000000000000e+000
          8.656716417877e+001 0.000000000000e+000 0.000000000000e+000
          8.805970149220e+001 0.000000000000e+000 0.000000000000e+000
          8.955223880563e+001 0.000000000000e+000 0.000000000000e+000
          9.104477611907e+001 0.000000000000e+000 0.000000000000e+000
          9.253731343250e+001 0.000000000000e+000 0.000000000000e+000
          9.402985074593e+001 0.000000000000e+000 0.000000000000e+000
          9.552238805936e+001 0.000000000000e+000 0.000000000000e+000
          9.701492537279e+001 0.000000000000e+000 0.000000000000e+000
          9.850746268622e+001 0.000000000000e+000 0.000000000000e+000
          9.999999999965e+001 0.000000000000e+000 0.000000000000e+000
          1.014925373131e+002 0.000000000000e+000 0.000000000000e+000
          1.029850746265e+002 0.000000000000e+000 0.000000000000e+000
          1.044776119399e+002 0.000000000000e+000 0.000000000000e+000
          1.059701492534e+002 0.000000000000e+000 0.000000000000e+000
          1.074626865668e+002 0.000000000000e+000 0.000000000000e+000
          1.089552238802e+002 0.000000000000e+000 0.000000000000e+000
          1.104477611937e+002 0.000000000000e+000 0.000000000000e+000
          1.119402985071e+002 0.000000000000e+000 0.000000000000e+000
          1.134328358205e+002 0.000000000000e+000 0.000000000000e+000
          1.149253731340e+002 0.000000000000e+000 0.000000000000e+000
          1.164179104474e+002 0.000000000000e+000 0.000000000000e+000
          1.179104477608e+002 0.000000000000e+000 0.000000000000e+000
          1.194029850742e+002 0.000000000000e+000 0.000000000000e+000
          1.208955223877e+002 0.000000000000e+000 0.000000000000e+000
          1.223880597011e+002 0.000000000000e+000 0.000000000000e+000
          1.238805970145e+002 0.000000000000e+000 0.000000000000e+000
          1.253731343280e+002 0.000000000000e+000 0.000000000000e+000
          1.268656716414e+002 0.000000000000e+000 0.000000000000e+000
          1.283582089548e+002 0.000000000000e+000 0.000000000000e+000
          1.298507462683e+002 0.000000000000e+000 0.000000000000e+000
          1.313432835817e+002 0.000000000000e+000 0.000000000000e+000
          1.328358208952e+002 0.000000000000e+000 0.000000000000e+000
          1.343283582086e+002 0.000000000000e+000 0.000000000000e+000
          1.358208955220e+002 0.000000000000e+000 0.000000000000e+000
          1.373134328355e+002 0.000000000000e+000 0.000000000000e+000
          1.388059701489e+002 0.000000000000e+000 0.000000000000e+000
          1.402985074624e+002 0.000000000000e+000 0.000000000000e+000
          1.417910447758e+002 0.000000000000e+000 0.000000000000e+000
          1.432835820892e+002 0.000000000000e+000 0.000000000000e+000
          1.447761194027e+002 0.000000000000e+000 0.000000000000e+000
          1.462686567161e+002 0.000000000000e+000 0.000000000000e+000
          1.477611940296e+002 0.000000000000e+000 0.000000000000e+000
          1.492537313430e+002 0.000000000000e+000 0.000000000000e+000
          1.507462686564e+002 0.000000000000e+000 0.000000000000e+000
          1.522388059699e+002 0.000000000000e+000 0.000000000000e+000
          1.537313432833e+002 0.000000000000e+000 0.000000000000e+000
          1.552238805968e+002 0.000000000000e+000 0.000000000000e+000
          1.567164179102e+002 0.000000000000e+000 0.000000000000e+000
          1.582089552237e+002 0.000000000000e+000 0.000000000000e+000
          1.597014925371e+002 0.000000000000e+000 0.000000000000e+000
          1.611940298505e+002 0.000000000000e+000 0.000000000000e+000
          1.626865671640e+002 0.000000000000e+000 0.000000000000e+000
          1.641791044774e+002 0.000000000000e+000 0.000000000000e+000
          1.656716417909e+002 0.000000000000e+000 0.000000000000e+000
          1.671641791043e+002 0.000000000000e+000 0.000000000000e+000
          1.686567164177e+002 0.000000000000e+000 0.000000000000e+000
          1.701492537312e+002 0.000000000000e+000 0.000000000000e+000
          1.716417910446e+002 0.000000000000e+000 0.000000000000e+000
          1.731343283581e+002 0.000000000000e+000 0.000000000000e+000
          1.746268656715e+002 0.000000000000e+000 0.000000000000e+000
          1.761194029849e+002 0.000000000000e+000 0.000000000000e+000
          1.776119402984e+002 0.000000000000e+000 0.000000000000e+000
          1.791044776118e+002 0.000000000000e+000 0.000000000000e+000
          1.805970149253e+002 0.000000000000e+000 0.000000000000e+000
          1.820895522387e+002 0.000000000000e+000 0.000000000000e+000
          1.835820895521e+002 0.000000000000e+000 0.000000000000e+000
          1.850746268656e+002 0.000000000000e+000 0.000000000000e+000
          1.865671641790e+002 0.000000000000e+000 0.000000000000e+000
          1.880597014925e+002 0.000000000000e+000 0.000000000000e+000
          1.895522388059e+002 0.000000000000e+000 0.000000000000e+000
          1.910447761194e+002 0.000000000000e+000 0.000000000000e+000
          1.925373134328e+002 0.000000000000e+000 0.000000000000e+000
          1.940298507462e+002 0.000000000000e+000 0.000000000000e+000
          1.955223880597e+002 0.000000000000e+000 0.000000000000e+000
          1.970149253731e+002 0.000000000000e+000 0.000000000000e+000
          1.985074626866e+002 0.000000000000e+000 0.000000000000e+000
          2.000000000000e+002 1.428571428570e+000 0.000000000000e+000
          2.000000000000e+002 2.857142857140e+000 0.000000000000e+000
[...]
      <PointData Scalars="Capillary_Pressure">
        <DataArray type="Float64" Name="Capillary_Pressure" format="ascii">
          3.858365063875e+005 0.000000000000e+000 0.000000000000e+000 3.858387798765e+005 3.860636282507e+005 3.833335103641e+005 3.824712735947e+005 3.805407711942e+005 3.802678658332e+005 3.783738665153e+005 3.763465435199e+005 3.762705608969e+005 3.741028066661e+005 3.739350167858e+005 3.720537689714e+005 3.696836630507e+005 3.697289256656e+005 3.677111476331e+005 3.673017561786e+005 3.651975825398e+005 3.618035364921e+005 3.615971075336e+005 3.610310480927e+005 3.580260687401e+005 3.576895371898e+005 3.555035349094e+005 3.548774337514e+005 3.517362524663e+005 3.512342131598e+005 3.491683141126e+005 3.485289255613e+005 3.453285385186e+005 3.448024556158e+005 3.428236961188e+005 3.420854862962e+005 3.384853795818e+005 3.383979683538e+005 3.357880192768e+005 3.333974195892e+005 3.331089857886e+005 3.323106789465e+005 3.291531628413e+005 3.264753872373e+005 3.261056305583e+005 3.224385082159e+005 3.219705553798e+005 3.191418397911e+005 3.186477252106e+005 3.162067000015e+005 3.152974123055e+005 3.112083466951e+005 3.110172651429e+005 3.071587558727e+005 3.065977600641e+005 3.026351944711e+005 3.012638406654e+005 2.990779934446e+005 2.986090464276e+005 2.974785854453e+005 2.936849094728e+005 2.904621744592e+005 2.900861389468e+005 2.860325629796e+005 2.853332132588e+005 2.824041114466e+005 2.790233922885e+005 2.760108838278e+005 2.753874423724e+005 2.708374729093e+005 2.692306974212e+005 2.666184405326e+005 2.634629915216e+005 2.625985729110e+005 2.597195644440e+005 2.559817736388e+005 2.526523715908e+005 2.521004374464e+005 2.485528869125e+005 2.453070001623e+005 2.439895741170e+005 2.382808584645e+005 2.349031276000e+005 2.317562214288e+005 2.281501774399e+005 2.246122137468e+005 2.208809546863e+005 2.201485831529e+005 2.166334111949e+005 2.127416884301e+005 2.091998823784e+005 2.019783688819e+005 1.981054138049e+005 1.941707753993e+005 1.898122220566e+005 1.871664533922e+005 1.795925285472e+005 1.750672653386e+005 1.725779545541e+005 1.644237116262e+005 1.581929431958e+005 1.551148655187e+005 1.449811959524e+005 1.384415848599e+005 1.313562521713e+005 1.225839994469e+005 1.133650015909e+005 1.032924139622e+005 9.108554500945e+004 7.762093802324e+004 6.080590466038e+004 3.892148076933e+004 7.539224219419e+003 0.000000000000e+000 0.000000000000e+000 0.000000000000e+000 0.000000000000e+000 0.000000000000e+000 0.000000000000e+000 0.000000000000e+000 0.000000000000e+000 0.000000000000e+000 0.000000000000e+000 0.000000000000e+000 0.000000000000e+000 0.000000000000e+000 0.000000000000e+000 0.000000000000e+000 0.000000000000e+000 0.000000000000e+000 0.000000000000e+000 0.000000000000e+000 0.000000000000e+000 0.000000000000e+000 0.000000000000e+000 0.000000000000e+000 0.000000000000e+000 0.000000000000e+000 0.000000000000e+000 0.000000000000e+000 0.000000000000e+000 0.000000000000e+000 0.000000000000e+000 0.000000000000e+000 0.000000000000e+000 0.000000000000e+000 0.000000000000e+000 0.000000000000e+000 0.000000000000e+000 0.000000000000e+000 0.000000000000e+000 0.000000000000e+000 0.000000000000e+000 0.000000000000e+000 0.000000000000e+000 0.000000000000e+000 0.000000000000e+000 0.000000000000e+000 0.000000000000e+000 0.000000000000e+000 0.000000000000e+000 0.000000000000e+000 0.000000000000e+000 0.000000000000e+000 0.000000000000e+000 0.000000000000e+000 0.000000000000e+000 0.000000000000e+000 0.000000000000e+000 0.000000000000e+000 0.000000000000e+000 0.000000000000e+000 0.000000000000e+000 0.000000000000e+000 0.000000000000e+000 0.000000000000e+000 7.534795351428e+003 3.891017674267e+004 6.077731991584e+004 7.761168736786e+004 9.107087617598e+004 1.032955973131e+005 1.133860539311e+005 1.225722674752e+005 1.313540002347e+005 1.384351134949e+005 1.449744022693e+005 1.551110188798e+005 1.581850324234e+005 1.644073249411e+005 1.725707879037e+005 1.750643967233e+005 1.795953122019e+005 1.871586042112e+005 1.898072705485e+005 1.941609987205e+005 1.980853186988e+005 2.019568686390e+005 2.091944365242e+005 2.127458125912e+005 2.166354513145e+005 2.201484211736e+005 2.208770767110e+005 2.246219691777e+005 2.281592451244e+005 2.317471287031e+005 2.349060440826e+005 2.382632214733e+005 2.439781622427e+005 2.452904843481e+005 2.485562633646e+005 2.520861853861e+005 2.526392378113e+005 2.559682564738e+005 2.597087836823e+005 2.626127163528e+005 2.659608670412e+005 2.666169604761e+005 2.692132794984e+005 2.708156058287e+005 2.754003398823e+005 2.785814897259e+005 2.790093733361e+005 2.823397884408e+005 2.853344474235e+005 2.860346145404e+005 2.900884264093e+005 2.904689658992e+005 2.937141311239e+005 2.974745443915e+005 2.986147654322e+005 2.990917262393e+005 3.012887421288e+005 3.056322037439e+005 3.066191721481e+005 3.071597911660e+005 3.110209982743e+005 3.112491377943e+005 3.152784622582e+005 3.161779641662e+005 3.186331372737e+005 3.191182147457e+005 3.219538207556e+005 3.252136205863e+005 3.261043179627e+005 3.264647593063e+005 3.291456102846e+005 3.323147728981e+005 3.331110231440e+005 3.333899287568e+005 3.357903240059e+005 3.383986715170e+005 3.384838197608e+005 3.420819317279e+005 3.428199971686e+005 3.447997966443e+005 3.453315644635e+005 3.485268101652e+005 3.491673630950e+005 3.512332707142e+005 3.517304568350e+005 3.548784716882e+005 3.554979204102e+005 3.576900226611e+005 3.580298976699e+005 3.610305093564e+005 3.616010100332e+005 3.618122556030e+005 3.651879837627e+005 3.672990696582e+005 3.677126523110e+005 3.697366454101e+005 3.696780681762e+005 3.720419732464e+005 3.720998635366e+005 3.741203568335e+005 3.762661862374e+005 3.763413148534e+005 3.783800272756e+005 3.802743769511e+005 3.805544308382e+005 3.824303936533e+005 3.833353710672e+005 3.860631264932e+005 3.858378618616e+005 3.858353957279e+005 3.858391273515e+005 3.858377617426e+005 3.858359260491e+005 3.858365418687e+005 3.858366353177e+005 3.858354203979e+005 3.858360701529e+005 3.858372726902e+005 3.858376007006e+005 3.858346256461e+005 3.858356649519e+005 0.000000000000e+000 3.783559110116e+005 0.000000000000e+000 0.000000000000e+000 5.193051458949e+004 1.352831290639e+005 1.796224059846e+005 3.613900667361e+005 2.088221682747e+005 3.492023366522e+005 3.386658530918e+005 3.263696346651e+005 3.062501560073e+005 2.906990646775e+005 2.748614290757e+005 2.556007267484e+005 2.352433842542e+005 3.699259423675e+005 3.161956586942e+005 2.208638070559e+005 2.238824170971e+005 2.452866362319e+005 2.659626574353e+005 2.823259019407e+005 2.986152891000e+005 0.000000000000e+000 0.000000000000e+000 1.020851709686e+005 2.986118726159e+005 2.825089244373e+005 2.658133731092e+005 2.449261331510e+005 1.580005590924e+005 1.941609679920e+005 3.555126298487e+005 3.448765178931e+005 3.330386962679e+005 1.940981610258e+005 1.581684461187e+005 1.032749110305e+005 0.000000000000e+000 0.000000000000e+000 3.331383942141e+005 3.448043387723e+005 3.554898071991e+005 0.000000000000e+000 0.000000000000e+000 3.192378118106e+005 3.115698358047e+005 3.739335618516e+005 3.651878780048e+005 0.000000000000e+000 3.805488964459e+005 0.000000000000e+000 3.805564605064e+005 3.736912271846e+005 3.652350823152e+005 3.221016270654e+005 3.107791815337e+005 0.000000000000e+000 2.352326997312e+005 0.000000000000e+000 2.555944309534e+005 2.748524346375e+005 2.906845965606e+005 3.058741819294e+005 2.088723391335e+005 5.027776514086e+004 1.343918050472e+005 1.795791822943e+005 3.492413263533e+005 3.387348496887e+005 2.098063813084e+005 1.797357742479e+005 1.352050311082e+005 5.084004909088e+004 2.906988101976e+005 2.748477591207e+005 2.556166561945e+005 0.000000000000e+000 2.352228008414e+005 0.000000000000e+000 3.264376141656e+005 3.386908072422e+005 3.492347869895e+005 3.613921262907e+005 0.000000000000e+000 0.000000000000e+000 3.763396356167e+005 3.610188522768e+005 3.024537781565e+005 3.286374396357e+005 0.000000000000e+000 3.824846596344e+005 3.699116891441e+005 3.783200584181e+005 3.699277919910e+005 3.162479029933e+005 3.217095288943e+005 3.112672999260e+005 3.741132326298e+005 3.651546840672e+005 3.161677771541e+005 0.000000000000e+000 9.304956154140e+004 0.000000000000e+000 1.552281008236e+005 0.000000000000e+000 1.902368833530e+005 2.441930665661e+005 2.791821924355e+005 2.946300430662e+005 2.627141212523e+005 3.548948819305e+005 3.333353557409e+005 3.448413537167e+005 2.244926852271e+005 3.161996489798e+005 0.000000000000e+000 3.833226927455e+005 0.000000000000e+000 3.833176667349e+005 2.396630225177e+005 2.598517346127e+005 2.792235063298e+005 2.941400413662e+005 2.019951060376e+005 2.279908385023e+005 2.166994801109e+005 1.690882004499e+005 3.293442823898e+005 1.169293780484e+005 3.426074426272e+005 0.000000000000e+000 3.520224030391e+005 0.000000000000e+000 0.000000000000e+000 0.000000000000e+000 0.000000000000e+000 0.000000000000e+000 1.177392329665e+005 8.692649911923e+004 1.692293878977e+005 1.518085041197e+005 3.519597287784e+005 1.906689842782e+005 2.020136773436e+005 3.425602116649e+005 3.455214360651e+005 2.941276660465e+005 2.792007786722e+005 2.597700535667e+005 2.856617975065e+005 2.669661307622e+005 2.435959780080e+005 2.482108497153e+005 3.334392541280e+005 2.166822862144e+005 2.277330419209e+005 0.000000000000e+000 3.578592542752e+005 0.000000000000e+000 3.454479462406e+005 8.894155073713e+004 3.335222656233e+005 1.512126163356e+005 3.014879131573e+005 2.857926515578e+005 2.671028627297e+005 2.513792232921e+005 1.908213232785e+005 3.699069336877e+005 0.000000000000e+000 0.000000000000e+000 3.106206086018e+005 3.246606932322e+005 3.650030633668e+005 2.167972625268e+005 2.669478276288e+005 2.481602596224e+005 2.856180171549e+005 3.014683387536e+005 3.578298933100e+005 3.426598335428e+005 0.000000000000e+000 3.293774874625e+005 0.000000000000e+000 1.183790521000e+005 2.018759010654e+005 1.653181981909e+005 3.576963829441e+005 0.000000000000e+000 0.000000000000e+000 3.147841341121e+005 3.741048373645e+005 0.000000000000e+000 2.164928314039e+005 2.053654257755e+005 1.726865572151e+005 3.289617950108e+005 1.233469928859e+005 3.420407664037e+005 2.860999152950e+005 2.692719278965e+005 2.521639280633e+005 0.000000000000e+000 3.580253659339e+005 0.000000000000e+000 3.674893305681e+005 3.017089223126e+005 0.000000000000e+000 0.000000000000e+000 0.000000000000e+000 2.989684675270e+005 3.324020327249e+005 3.070867015362e+005 3.253583723629e+005 3.802818010875e+005 3.617691795406e+005 3.762351280874e+005 3.719726430257e+005 3.617634860540e+005 2.382977347454e+005 2.597245875317e+005 2.786096218792e+005 2.937269674801e+005 5.654685702467e+003 3.517397667603e+005 0.000000000000e+000 2.282133603924e+005 1.871805754302e+005 8.992572508990e+003 1.448686471787e+005 0.000000000000e+000 7.755911006720e+004 2.388505013386e+005 2.597400573258e+005 2.785454648472e+005 2.936715408962e+005 3.516750521007e+005 3.357630222726e+005 3.485411308998e+005 3.485404948031e+005 7.674717115166e+004 3.353433990996e+005 1.448842732858e+005 1.870958242742e+005 2.281901620347e+005 0.000000000000e+000 0.000000000000e+000 3.833200432514e+005 3.833262118269e+005 0.000000000000e+000 3.798415677033e+005 0.000000000000e+000 0.000000000000e+000 3.784209193231e+005 0.000000000000e+000 3.762524918255e+005 3.798533565608e+005 3.255448519762e+005 3.064968301346e+005 3.612081599933e+005 3.761599697620e+005 3.261561234569e+005 3.675994850276e+005 3.677412638224e+005 3.065087413796e+005 3.718698596010e+005 3.216562239129e+005 3.149197309517e+005 3.720308202676e+005 3.423636005484e+005 2.015645541286e+005 1.685085927469e+005 1.205402590105e+005 0.000000000000e+000 0.000000000000e+000 2.169316318518e+005 3.017361147766e+005 2.854802007838e+005 2.697410670268e+005 2.518188842118e+005 3.190443337522e+005 3.676777053728e+005 3.118222350869e+005 3.186211036317e+005 0.000000000000e+000 0.000000000000e+000 3.575784726999e+005 3.317736469222e+005 3.784513819156e+005 3.805065179164e+005 0.000000000000e+000 3.719268280704e+005 2.353610244279e+005 2.585963409015e+005 2.754525466546e+005 2.905064685252e+005 2.092169439214e+005 2.096163793797e+005 2.316824413616e+005 1.750060589901e+005 1.327014203430e+005 3.264946189555e+005 3.736919597575e+004 3.388446080657e+005 0.000000000000e+000 3.512541912162e+005 0.000000000000e+000 0.000000000000e+000 3.699868711004e+004 1.326367368913e+005 1.761376290792e+005 3.512701068391e+005 3.388542760483e+005 2.904793733985e+005 2.754635604893e+005 2.586065316890e+005 0.000000000000e+000 3.610118106083e+005 3.025545041427e+005 0.000000000000e+000 0.000000000000e+000 0.000000000000e+000 3.582291115669e+005 3.618666469121e+005 3.762383745510e+005 3.152129444576e+005 0.000000000000e+000 0.000000000000e+000 1.083443392540e+005 1.616236076263e+005 1.983448351140e+005 3.555767017626e+005 3.427515971419e+005 3.326704835564e+005 2.453353346789e+005 2.825205570267e+005 2.990384726502e+005 2.665800676433e+005 2.205281678123e+005 0.000000000000e+000 0.000000000000e+000 0.000000000000e+000 0.000000000000e+000 1.357115349616e+005 1.794685087226e+005 3.387613934767e+005 2.905315520985e+005 2.745447800756e+005 2.553953879207e+005 3.827053473579e+005 3.186887858945e+005 2.095502618655e+005 2.092381506794e+005 3.058918436325e+005 0.000000000000e+000 3.859051348258e+005 3.289741005101e+005 3.014607406867e+005 1.942164337602e+005 1.582477214383e+005 1.033300624377e+005 0.000000000000e+000 0.000000000000e+000 3.330838751736e+005 3.447864429631e+005 3.555010620407e+005 2.659625592966e+005 2.452936811465e+005 2.986143232565e+005 2.824018920097e+005 0.000000000000e+000 0.000000000000e+000 2.824029653038e+005 2.659460076611e+005 1.032800398117e+005 2.452965473438e+005 1.581985919941e+005 1.941382530922e+005 3.448106883460e+005 2.208315902249e+005 2.208896357984e+005 3.674660342214e+005 3.225546774855e+005 3.696856109326e+005 2.994328187729e+005 3.160035464765e+005 0.000000000000e+000 0.000000000000e+000 3.110329041822e+005 3.075437295047e+005 3.156336037389e+005 2.050001065030e+005 2.358390028799e+005 2.317952709553e+005 2.123413880657e+005 2.519214673360e+005 2.703971141228e+005 2.896737915693e+005 1.823956223530e+005 3.489622941790e+005 3.380636341324e+005 0.000000000000e+000 6.864126323554e+004 1.415741702969e+005 0.000000000000e+000 3.489599606191e+005 6.870159566101e+004 3.380607824820e+005 2.896749773717e+005 2.703770991161e+005 2.523045359853e+005 1.415798722826e+005 1.824002217022e+005 3.828006593736e+005 3.761144629248e+005 0.000000000000e+000 3.827932421882e+005 2.351931468243e+005 2.352871018460e+005 3.492458206873e+005 3.492499119704e+005 4.980654042091e+004 5.028377285945e+004 0.000000000000e+000 3.718305822912e+005 3.783527854149e+005 3.609947559526e+005 3.699382081190e+005 0.000000000000e+000 3.859087121190e+005 0.000000000000e+000 3.859065266169e+005 3.739531589709e+005 0.000000000000e+000 0.000000000000e+000 1.797682839150e+005 1.352305630077e+005 3.386856407766e+005 2.554860877391e+005 2.907375390204e+005 2.749016564996e+005 0.000000000000e+000 3.652929101872e+005 3.652510875220e+005 3.762538954518e+005 3.068834540032e+005 3.257033826954e+005 3.762736195225e+005 3.616094439643e+005 3.553985606373e+005 3.218032187933e+005 3.647433982836e+005 0.000000000000e+000 0.000000000000e+000 3.247337165016e+005 3.072928745516e+005 0.000000000000e+000 3.266052675083e+005 3.071528565019e+005 3.111078542669e+005 0.000000000000e+000 3.578552563835e+005 0.000000000000e+000 2.860969581168e+005 2.692876770132e+005 2.521583785267e+005 2.132845287741e+005 3.425867658823e+005 1.169978481877e+005 3.316994391483e+005 1.691464609526e+005 2.054742882775e+005 0.000000000000e+000 3.677292070084e+005 3.119103917510e+005 3.184834154872e+005 3.264522780612e+005 3.720649389777e+005 0.000000000000e+000 3.859103108104e+005 0.000000000000e+000 3.860500412348e+005 3.784893565071e+005 3.613709261458e+005 3.162921906848e+005 3.217867402211e+005 0.000000000000e+000 3.333359616759e+005 2.982224988403e+005 3.652617070634e+005 3.068117764546e+005 3.697947814451e+005 1.907192522674e+005 1.506890943652e+005 8.784825226896e+004 3.335747656991e+005 3.455209931693e+005 7.581263396802e+004 0.000000000000e+000 1.447702899748e+005 1.115204896026e+004 1.869765637061e+005 3.485765157740e+005 3.353822699950e+005 3.511780280384e+005 2.936293751980e+005 2.596277853518e+005 2.759124422291e+005 2.390441211728e+005 0.000000000000e+000 0.000000000000e+000 3.519827209580e+005 2.278294446211e+005 2.942133792536e+005 2.793074758902e+005 2.599202453880e+005 2.436224686453e+005 2.282824055092e+005 2.208649687156e+005 2.452863285259e+005 2.824021607565e+005 2.659716919619e+005 2.986178289113e+005 0.000000000000e+000 0.000000000000e+000 1.032387258120e+005 1.941578138599e+005 1.581611753696e+005 3.554939722921e+005 3.448104916918e+005 3.331126811198e+005 3.257609086906e+005 3.617505762388e+005 0.000000000000e+000 3.784831431224e+005 2.284236660289e+005 2.389096997080e+005 2.595271557437e+005 2.783319373079e+005 2.935161047966e+005 1.651714306453e+004 0.000000000000e+000 3.510794915644e+005 7.412676256486e+004 1.446356977015e+005 1.868316808270e+005 3.487695998694e+005 3.354248540993e+005 3.158648818341e+005 0.000000000000e+000 3.187533952093e+005 0.000000000000e+000 2.240185310669e+005 2.207609494098e+005 2.450817218746e+005 2.656500596567e+005 2.821697002121e+005 2.982948914938e+005 0.000000000000e+000 0.000000000000e+000 1.046356453212e+005 1.619966030005e+005 1.937092202477e+005 3.446992367977e+005 1.942776557179e+005 2.822744956675e+005 2.636088184337e+005 2.451354737956e+005 1.582957692233e+005 1.033739487422e+005 3.330493860119e+005 0.000000000000e+000 3.447643755750e+005 0.000000000000e+000 3.554979781673e+005 3.699265762270e+005 0.000000000000e+000 3.551038784532e+005 0.000000000000e+000 2.792335871756e+005 2.442594945697e+005 2.626013365194e+005 2.946690726633e+005 3.447322310559e+005 9.415479781116e+004 3.330413942235e+005 1.540162710149e+005 1.904696813178e+005 2.242803393518e+005 3.783915239810e+005 0.000000000000e+000 3.859100984245e+005 0.000000000000e+000 0.000000000000e+000 0.000000000000e+000 3.189117305757e+005 3.120702771286e+005 3.654097927134e+005 3.554350391479e+005 0.000000000000e+000 3.779992682429e+005 0.000000000000e+000 0.000000000000e+000 3.615235117509e+005 2.055455145115e+005 1.728237656212e+005 3.290640811474e+005 1.268591903806e+005 3.419808901039e+005 2.520691993124e+005 2.692785742490e+005 2.860253621381e+005 2.133006237308e+005 0.000000000000e+000 3.581126449678e+005 0.000000000000e+000 3.264675857053e+005 3.059605667195e+005 3.191657930038e+005 3.740770311244e+005 3.762346981484e+005 0.000000000000e+000 3.825134895351e+005 0.000000000000e+000 3.825135431903e+005 2.981707656882e+005 3.333186585249e+005 3.014725166577e+005 3.719567877977e+005 0.000000000000e+000 3.827146756511e+005 3.221623019025e+005 3.114955192305e+005 3.192685777147e+005 3.654322672952e+005 3.739746497621e+005 3.697740913908e+005 3.294812569149e+005 3.739805141506e+005 3.677738288618e+005 3.190573044569e+005 3.763487052134e+005 3.741633593355e+005 3.157530172524e+005 3.251286457980e+005 3.113171228040e+005 3.218788217311e+005 0.000000000000e+000 3.802802137767e+005 3.579748728583e+005 2.204630950764e+005 2.124108340119e+005 0.000000000000e+000 0.000000000000e+000 0.000000000000e+000 0.000000000000e+000 1.234423542034e+005 1.727680534283e+005 3.419973431683e+005 1.977709970776e+005 2.049366000328e+005 2.990447429804e+005 3.015955762201e+005 2.852648564703e+005 2.896085559595e+005 2.703029440736e+005 2.661600046577e+005 2.485491834195e+005 2.526160561584e+005 3.805408520222e+005 0.000000000000e+000 0.000000000000e+000 0.000000000000e+000 0.000000000000e+000 3.828265361088e+005 0.000000000000e+000 2.394860777665e+005 2.597082485418e+005 2.791095380666e+005 2.934518412798e+005 2.279981631725e+005 2.162430895328e+005 2.021336737250e+005 1.693069883202e+005 3.292462528564e+005 1.177988149291e+005 3.425246854573e+005 0.000000000000e+000 3.519511595649e+005 0.000000000000e+000 0.000000000000e+000 0.000000000000e+000 0.000000000000e+000 1.178204182660e+005 1.69305