<?xml version="1.0"?>
<VTKFile type="UnstructuredGrid" version="0.1" byte_order="LittleEndian">
  <UnstructuredGrid>
    <Piece NumberOfPoints="2604" NumberOfCells="4910">
      <Points>
        <DataArray type="Float64" NumberOfComponents="3" format="ascii">
          0.000000000000e+000 0.000000000000e+000 0.000000000000e+000
          2.000000000000e+002 0.000000000000e+000 0.000000000000e+000
          2.000000000000e+002 2.000000000000e+001 0.000000000000e+000
          0.000000000000e+000 2.000000000000e+001 0.000000000000e+000
          1.492537313427e+000 0.000000000000e+000 0.000000000000e+000
          2.985074626854e+000 0.000000000000e+000 0.000000000000e+000
          4.477611940281e+000 0.000000000000e+000 0.000000000000e+000
          5.970149253708e+000 0.000000000000e+000 0.000000000000e+000
          7.462686567135e+000 0.000000000000e+000 0.000000000000e+000
          8.955223880561e+000 0.000000000000e+000 0.000000000000e+000
          1.044776119399e+001 0.000000000000e+000 0.000000000000e+000
          1.194029850741e+001 0.000000000000e+000 0.000000000000e+000
          1.343283582084e+001 0.000000000000e+000 0.000000000000e+000
          1.492537313427e+001 0.000000000000e+000 0.000000000000e+000
          1.641791044770e+001 0.000000000000e+000 0.000000000000e+000
          1.791044776112e+001 0.000000000000e+000 0.000000000000e+000
          1.940298507455e+001 0.000000000000e+000 0.000000000000e+000
          2.089552238798e+001 0.000000000000e+000 0.000000000000e+000
          2.238805970141e+001 0.000000000000e+000 0.000000000000e+000
          2.388059701484e+001 0.000000000000e+000 0.000000000000e+000
          2.537313432826e+001 0.000000000000e+000 0.000000000000e+000
          2.686567164169e+001 0.000000000000e+000 0.000000000000e+000
          2.835820895511e+001 0.000000000000e+000 0.000000000000e+000
          2.985074626854e+001 0.000000000000e+000 0.000000000000e+000
          3.134328358196e+001 0.000000000000e+000 0.000000000000e+000
          3.283582089539e+001 0.000000000000e+000 0.000000000000e+000
          3.432835820881e+001 0.000000000000e+000 0.000000000000e+000
          3.582089552224e+001 0.000000000000e+000 0.000000000000e+000
          3.731343283566e+001 0.000000000000e+000 0.000000000000e+000
          3.880597014909e+001 0.000000000000e+000 0.000000000000e+000
          4.029850746251e+001 0.000000000000e+000 0.000000000000e+000
          4.179104477594e+001 0.000000000000e+000 0.000000000000e+000
          4.328358208936e+001 0.000000000000e+000 0.000000000000e+000
          4.477611940279e+001 0.000000000000e+000 0.000000000000e+000
          4.626865671621e+001 0.000000000000e+000 0.000000000000e+000
          4.776119402964e+001 0.000000000000e+000 0.000000000000e+000
          4.925373134306e+001 0.000000000000e+000 0.000000000000e+000
          5.074626865649e+001 0.000000000000e+000 0.000000000000e+000
          5.223880596991e+001 0.000000000000e+000 0.000000000000e+000
          5.373134328334e+001 0.000000000000e+000 0.000000000000e+000
          5.522388059676e+001 0.000000000000e+000 0.000000000000e+000
          5.671641791019e+001 0.000000000000e+000 0.000000000000e+000
          5.820895522361e+001 0.000000000000e+000 0.000000000000e+000
          5.970149253704e+001 0.000000000000e+000 0.000000000000e+000
          6.119402985046e+001 0.000000000000e+000 0.000000000000e+000
          6.268656716389e+001 0.000000000000e+000 0.000000000000e+000
          6.417910447732e+001 0.000000000000e+000 0.000000000000e+000
          6.567164179075e+001 0.000000000000e+000 0.000000000000e+000
          6.716417910418e+001 0.000000000000e+000 0.000000000000e+000
          6.865671641761e+001 0.000000000000e+000 0.000000000000e+000
          7.014925373104e+001 0.000000000000e+000 0.000000000000e+000
          7.164179104447e+001 0.000000000000e+000 0.000000000000e+000
          7.313432835790e+001 0.000000000000e+000 0.000000000000e+000
          7.462686567133e+001 0.000000000000e+000 0.000000000000e+000
          7.611940298476e+001 0.000000000000e+000 0.000000000000e+000
          7.761194029819e+001 0.000000000000e+000 0.000000000000e+000
          7.910447761162e+001 0.000000000000e+000 0.000000000000e+000
          8.059701492505e+001 0.000000000000e+000 0.000000000000e+000
          8.208955223848e+001 0.000000000000e+000 0.000000000000e+000
          8.358208955191e+001 0.000000000000e+000 0.000000000000e+000
          8.507462686534e+001 0.000000000000e+000 0.000000000000e+000
          8.656716417877e+001 0.000000000000e+000 0.000000000000e+000
          8.805970149220e+001 0.000000000000e+000 0.000000000000e+000
          8.955223880563e+001 0.000000000000e+000 0.000000000000e+000
          9.104477611907e+001 0.000000000000e+000 0.000000000000e+000
          9.253731343250e+001 0.000000000000e+000 0.000000000000e+000
          9.402985074593e+001 0.000000000000e+000 0.000000000000e+000
          9.552238805936e+001 0.000000000000e+000 0.000000000000e+000
          9.701492537279e+001 0.000000000000e+000 0.000000000000e+000
          9.850746268622e+001 0.000000000000e+000 0.000000000000e+000
          9.999999999965e+001 0.000000000000e+000 0.000000000000e+000
          1.014925373131e+002 0.000000000000e+000 0.000000000000e+000
          1.029850746265e+002 0.000000000000e+000 0.000000000000e+000
          1.044776119399e+002 0.000000000000e+000 0.000000000000e+000
          1.059701492534e+002 0.000000000000e+000 0.000000000000e+000
          1.074626865668e+002 0.000000000000e+000 0.000000000000e+000
          1.089552238802e+002 0.000000000000e+000 0.000000000000e+000
          1.104477611937e+002 0.000000000000e+000 0.000000000000e+000
          1.119402985071e+002 0.000000000000e+000 0.000000000000e+000
          1.134328358205e+002 0.000000000000e+000 0.000000000000e+000
          1.149253731340e+002 0.000000000000e+000 0.000000000000e+000
          1.164179104474e+002 0.000000000000e+000 0.000000000000e+000
          1.179104477608e+002 0.000000000000e+000 0.000000000000e+000
          1.194029850742e+002 0.000000000000e+000 0.000000000000e+000
          1.208955223877e+002 0.000000000000e+000 0.000000000000e+000
          1.223880597011e+002 0.000000000000e+000 0.000000000000e+000
          1.238805970145e+002 0.000000000000e+000 0.000000000000e+000
          1.253731343280e+002 0.000000000000e+000 0.000000000000e+000
          1.268656716414e+002 0.000000000000e+000 0.000000000000e+000
          1.283582089548e+002 0.000000000000e+000 0.000000000000e+000
          1.298507462683e+002 0.000000000000e+000 0.000000000000e+000
          1.313432835817e+002 0.000000000000e+000 0.000000000000e+000
          1.328358208952e+002 0.000000000000e+000 0.000000000000e+000
          1.343283582086e+002 0.000000000000e+000 0.000000000000e+000
          1.358208955220e+002 0.000000000000e+000 0.000000000000e+000
          1.373134328355e+002 0.000000000000e+000 0.000000000000e+000
          1.388059701489e+002 0.000000000000e+000 0.000000000000e+000
          1.402985074624e+002 0.000000000000e+000 0.000000000000e+000
          1.417910447758e+002 0.000000000000e+000 0.000000000000e+000
          1.432835820892e+002 0.000000000000e+000 0.000000000000e+000
          1.447761194027e+002 0.000000000000e+000 0.000000000000e+000
          1.462686567161e+002 0.000000000000e+000 0.000000000000e+000
          1.477611940296e+002 0.000000000000e+000 0.000000000000e+000
          1.492537313430e+002 0.000000000000e+000 0.000000000000e+000
          1.507462686564e+002 0.000000000000e+000 0.000000000000e+000
          1.522388059699e+002 0.000000000000e+000 0.000000000000e+000
          1.537313432833e+002 0.000000000000e+000 0.000000000000e+000
          1.552238805968e+002 0.000000000000e+000 0.000000000000e+000
          1.567164179102e+002 0.000000000000e+000 0.000000000000e+000
          1.582089552237e+002 0.000000000000e+000 0.000000000000e+000
          1.597014925371e+002 0.000000000000e+000 0.000000000000e+000
          1.611940298505e+002 0.000000000000e+000 0.000000000000e+000
          1.626865671640e+002 0.000000000000e+000 0.000000000000e+000
          1.641791044774e+002 0.000000000000e+000 0.000000000000e+000
          1.656716417909e+002 0.000000000000e+000 0.000000000000e+000
          1.671641791043e+002 0.000000000000e+000 0.000000000000e+000
          1.686567164177e+002 0.000000000000e+000 0.000000000000e+000
          1.701492537312e+002 0.000000000000e+000 0.000000000000e+000
          1.716417910446e+002 0.000000000000e+000 0.000000000000e+000
          1.731343283581e+002 0.000000000000e+000 0.000000000000e+000
          1.746268656715e+002 0.000000000000e+000 0.000000000000e+000
          1.761194029849e+002 0.000000000000e+000 0.000000000000e+000
          1.776119402984e+002 0.000000000000e+000 0.000000000000e+000
          1.791044776118e+002 0.000000000000e+000 0.000000000000e+000
          1.805970149253e+002 0.000000000000e+000 0.000000000000e+000
          1.820895522387e+002 0.000000000000e+000 0.000000000000e+000
          1.835820895521e+002 0.000000000000e+000 0.000000000000e+000
          1.850746268656e+002 0.000000000000e+000 0.000000000000e+000
          1.865671641790e+002 0.000000000000e+000 0.000000000000e+000
          1.880597014925e+002 0.000000000000e+000 0.000000000000e+000
          1.895522388059e+002 0.000000000000e+000 0.000000000000e+000
          1.910447761194e+002 0.000000000000e+000 0.000000000000e+000
          1.925373134328e+002 0.000000000000e+000 0.000000000000e+000
          1.940298507462e+002 0.000000000000e+000 0.000000000000e+000
          1.955223880597e+002 0.000000000000e+000 0.000000000000e+000
          1.970149253731e+002 0.000000000000e+000 0.000000000000e+000
          1.985074626866e+002 0.000000000000e+000 0.000000000000e+000
          2.000000000000e+002 1.428571428570e+000 0.000000000000e+000
          2.000000000000e+002 2.857142857140e+000 0.000000000000e+000
[...]
      <PointData Scalars="Capillary_Pressure">
        <DataArray type="Float64" Name="Capillary_Pressure" format="ascii">
          3.817761567857e+005 0.000000000000e+000 0.000000000000e+000 3.817791686305e+005 3.820112553733e+005 3.792345930770e+005 3.783708100855e+005 3.764175037617e+005 3.761442324266e+005 3.742294641454e+005 3.721859884527e+005 3.721120863859e+005 3.699275359934e+005 3.697667047036e+005 3.679023656902e+005 3.655107362736e+005 3.655485286735e+005 3.635240955701e+005 3.631275734593e+005 3.610125626695e+005 3.575914535411e+005 3.574099664475e+005 3.568558888489e+005 3.538335256873e+005 3.535203538548e+005 3.513302546345e+005 3.507264787164e+005 3.475705286998e+005 3.470959651028e+005 3.450315073929e+005 3.444240862009e+005 3.412116271195e+005 3.407124182645e+005 3.387418345332e+005 3.380398898742e+005 3.344187661232e+005 3.343846047850e+005 3.317803891994e+005 3.293871799313e+005 3.291483067344e+005 3.283951799571e+005 3.252219511789e+005 3.225843234479e+005 3.222347174912e+005 3.185915373508e+005 3.181540053153e+005 3.153227141244e+005 3.148941265001e+005 3.124721450956e+005 3.116015561483e+005 3.075171470163e+005 3.073760902667e+005 3.035243886162e+005 3.030193451372e+005 2.990524213656e+005 2.977443939143e+005 2.955801355660e+005 2.951731239677e+005 2.940913819797e+005 2.903128200307e+005 2.870970473710e+005 2.867955683575e+005 2.827698223054e+005 2.820947442087e+005 2.792158995263e+005 2.758614996003e+005 2.728738110121e+005 2.723208811144e+005 2.677644678583e+005 2.662234565796e+005 2.636343391434e+005 2.605118998924e+005 2.597317515550e+005 2.568848437768e+005 2.531714230619e+005 2.498600057769e+005 2.493895889037e+005 2.458763663137e+005 2.426610927467e+005 2.414229996770e+005 2.357049975623e+005 2.323426289112e+005 2.292635065754e+005 2.256702558660e+005 2.221750152159e+005 2.184685994011e+005 2.178102993871e+005 2.143348372588e+005 2.104844013738e+005 2.069635060179e+005 1.997251113031e+005 1.958888072532e+005 1.919984134675e+005 1.876427044123e+005 1.850498444360e+005 1.774458545957e+005 1.729372114788e+005 1.705046444343e+005 1.623033202922e+005 1.560565519999e+005 1.530210732809e+005 1.427872823263e+005 1.362085762897e+005 1.290691533428e+005 1.201890906113e+005 1.108321739684e+005 1.005716904393e+005 8.805824679535e+004 7.415785385081e+004 5.660380461757e+004 3.341322064464e+004 2.823233741099e+002 0.000000000000e+000 0.000000000000e+000 0.000000000000e+000 0.000000000000e+000 0.000000000000e+000 0.000000000000e+000 0.000000000000e+000 0.000000000000e+000 0.000000000000e+000 0.000000000000e+000 0.000000000000e+000 0.000000000000e+000 0.000000000000e+000 0.000000000000e+000 0.000000000000e+000 0.000000000000e+000 0.000000000000e+000 0.000000000000e+000 0.000000000000e+000 0.000000000000e+000 0.000000000000e+000 0.000000000000e+000 0.000000000000e+000 0.000000000000e+000 0.000000000000e+000 0.000000000000e+000 0.000000000000e+000 0.000000000000e+000 0.000000000000e+000 0.000000000000e+000 0.000000000000e+000 0.000000000000e+000 0.000000000000e+000 0.000000000000e+000 0.000000000000e+000 0.000000000000e+000 0.000000000000e+000 0.000000000000e+000 0.000000000000e+000 0.000000000000e+000 0.000000000000e+000 0.000000000000e+000 0.000000000000e+000 0.000000000000e+000 0.000000000000e+000 0.000000000000e+000 0.000000000000e+000 0.000000000000e+000 0.000000000000e+000 0.000000000000e+000 0.000000000000e+000 0.000000000000e+000 0.000000000000e+000 0.000000000000e+000 0.000000000000e+000 0.000000000000e+000 0.000000000000e+000 0.000000000000e+000 0.000000000000e+000 0.000000000000e+000 0.000000000000e+000 0.000000000000e+000 0.000000000000e+000 2.825277350650e+002 3.339726430968e+004 5.657489139156e+004 7.414912995649e+004 8.804338187336e+004 1.005750266497e+005 1.108545268873e+005 1.201777615502e+005 1.290671214608e+005 1.362011424986e+005 1.427769734317e+005 1.530191980854e+005 1.560481068707e+005 1.622834639843e+005 1.704973861237e+005 1.729319510243e+005 1.774573218102e+005 1.850373305281e+005 1.876397209448e+005 1.919865461058e+005 1.958695818311e+005 1.997214388573e+005 2.069577363841e+005 2.104909407709e+005 2.143407651690e+005 2.178058909270e+005 2.184755713739e+005 2.221803395493e+005 2.256876924153e+005 2.292568470034e+005 2.323522755817e+005 2.356754460579e+005 2.414147695163e+005 2.426495252110e+005 2.458879767910e+005 2.493738520172e+005 2.498494951842e+005 2.531612823358e+005 2.568707295757e+005 2.597469004236e+005 2.630501191657e+005 2.636375340969e+005 2.662100585723e+005 2.677360652023e+005 2.723338683670e+005 2.754842445262e+005 2.758582044228e+005 2.791436436294e+005 2.821079180903e+005 2.827805499370e+005 2.867867281665e+005 2.871059982693e+005 2.903465171805e+005 2.940896692046e+005 2.951745086781e+005 2.956010521298e+005 2.977572323756e+005 3.021083187622e+005 3.030381083438e+005 3.035221133785e+005 3.073901517815e+005 3.075630979919e+005 3.115857010020e+005 3.124397084891e+005 3.148864618457e+005 3.153108414548e+005 3.181297929433e+005 3.214010191960e+005 3.222356051467e+005 3.225614226097e+005 3.252243366712e+005 3.283902705279e+005 3.291543025371e+005 3.293762293373e+005 3.317783289752e+005 3.343876820542e+005 3.344146359461e+005 3.380395021357e+005 3.387374476942e+005 3.407104362266e+005 3.412142275633e+005 3.444218200479e+005 3.450303319406e+005 3.470953108096e+005 3.475632338639e+005 3.507299526064e+005 3.513239026466e+005 3.535186471210e+005 3.538384851026e+005 3.568576104144e+005 3.574086878244e+005 3.575972880763e+005 3.610021178787e+005 3.631236626761e+005 3.635221272411e+005 3.655576172114e+005 3.654989301570e+005 3.678458689235e+005 3.679028636504e+005 3.699399517478e+005 3.721152071656e+005 3.721707303367e+005 3.742397678155e+005 3.761496053756e+005 3.764298342021e+005 3.783305253122e+005 3.792389533719e+005 3.820104068916e+005 3.817802969538e+005 3.817780551104e+005 3.817803640465e+005 3.817798216136e+005 3.817752510892e+005 3.817779860116e+005 3.817790772564e+005 3.817756785762e+005 3.817769748505e+005 3.817812140591e+005 3.817773296710e+005 3.817773510950e+005 3.817772366896e+005 0.000000000000e+000 3.742162831664e+005 0.000000000000e+000 0.000000000000e+000 4.724037661918e+004 1.330281949872e+005 1.775192666660e+005 3.572091965507e+005 2.065491152487e+005 3.450547060531e+005 3.346353980890e+005 3.224924333938e+005 3.026995643204e+005 2.873921322119e+005 2.718268297804e+005 2.528266362070e+005 2.327320944471e+005 3.657376954956e+005 3.124579902783e+005 2.184554538860e+005 2.215169238819e+005 2.426383109899e+005 2.630802829128e+005 2.791222097735e+005 2.951806464059e+005 0.000000000000e+000 0.000000000000e+000 9.933738260205e+004 2.951735416901e+005 2.793292644824e+005 2.629100216178e+005 2.422606152536e+005 1.558704032484e+005 1.919636642723e+005 3.513384410772e+005 3.407774687869e+005 3.290864730982e+005 1.919338890367e+005 1.560328523464e+005 1.005528304119e+005 0.000000000000e+000 0.000000000000e+000 3.291746713357e+005 3.407147637818e+005 3.513174069472e+005 0.000000000000e+000 0.000000000000e+000 3.154199952222e+005 3.078999224773e+005 3.697566396279e+005 3.610018829670e+005 0.000000000000e+000 3.764234131114e+005 0.000000000000e+000 3.764342454877e+005 3.695216503434e+005 3.610440485403e+005 3.182743739769e+005 3.071523579401e+005 0.000000000000e+000 2.327349283763e+005 0.000000000000e+000 2.528221426484e+005 2.718189673066e+005 2.873763985711e+005 3.023341968221e+005 2.065922162112e+005 4.548729649508e+004 1.321302916683e+005 1.774900267581e+005 3.450847961204e+005 3.346949635695e+005 2.075385160820e+005 1.776384233831e+005 1.329528009341e+005 4.608354857982e+004 2.873931428457e+005 2.718092583063e+005 2.528462254218e+005 0.000000000000e+000 2.327030753685e+005 0.000000000000e+000 3.225553717249e+005 3.346473566836e+005 3.450787749176e+005 3.572139020227e+005 0.000000000000e+000 0.000000000000e+000 3.721715604366e+005 3.568508441193e+005 2.988871554124e+005 3.247481170329e+005 0.000000000000e+000 3.783882449417e+005 3.657240214374e+005 3.741793686098e+005 3.657435480086e+005 3.124587058996e+005 3.179436338551e+005 3.076193936552e+005 3.699370009476e+005 3.609818718175e+005 3.124345187307e+005 0.000000000000e+000 9.008471612167e+004 0.000000000000e+000 1.531296205297e+005 0.000000000000e+000 1.880753498118e+005 2.415806939255e+005 2.760737519323e+005 2.912082923332e+005 2.598765369814e+005 3.507435085042e+005 3.293295636301e+005 3.407178074049e+005 2.220664448257e+005 3.124759624637e+005 0.000000000000e+000 3.792252226785e+005 0.000000000000e+000 3.792226293842e+005 2.370544384344e+005 2.569155229247e+005 2.760677525744e+005 2.907367308284e+005 1.997920459977e+005 2.255552353201e+005 2.143636180672e+005 1.670168619700e+005 3.254098390645e+005 1.144563351548e+005 3.385401844234e+005 0.000000000000e+000 3.478439266716e+005 0.000000000000e+000 0.000000000000e+000 0.000000000000e+000 0.000000000000e+000 0.000000000000e+000 1.152782624650e+005 8.377342016077e+004 1.671507248710e+005 1.496821602703e+005 3.477858664148e+005 1.885302379169e+005 1.998076846082e+005 3.384978880927e+005 3.413778448892e+005 2.907030286267e+005 2.760553449684e+005 2.568808222439e+005 2.824120180455e+005 2.639671749367e+005 2.410484712851e+005 2.454901789019e+005 3.294314517682e+005 2.143533248534e+005 2.253198612533e+005 0.000000000000e+000 3.536833804942e+005 0.000000000000e+000 3.413109489016e+005 8.585628220456e+004 3.295152465014e+005 1.490623265606e+005 2.979870788290e+005 2.825491844651e+005 2.641053325793e+005 2.487029084728e+005 1.886995511337e+005 3.657180803447e+005 0.000000000000e+000 0.000000000000e+000 3.070040381964e+005 3.208615799589e+005 3.608275981807e+005 2.144611452805e+005 2.639680182097e+005 2.454123089643e+005 2.823538763864e+005 2.979706628187e+005 3.536561968793e+005 3.385807328262e+005 0.000000000000e+000 3.254216600032e+005 0.000000000000e+000 1.159582871151e+005 1.996913592446e+005 1.631697418239e+005 3.535231962900e+005 0.000000000000e+000 0.000000000000e+000 3.111265858210e+005 3.699298757070e+005 0.000000000000e+000 2.142100112236e+005 2.031848914591e+005 1.706104527339e+005 3.250471555339e+005 1.209633022362e+005 3.379908872347e+005 2.828263782700e+005 2.662412815319e+005 2.494635936115e+005 0.000000000000e+000 3.538339703896e+005 0.000000000000e+000 3.633018174355e+005 2.981991111451e+005 0.000000000000e+000 0.000000000000e+000 0.000000000000e+000 2.954833554983e+005 3.284606845330e+005 3.034599875673e+005 3.215171342241e+005 3.761614484711e+005 3.575527758309e+005 3.720780077132e+005 3.678013905511e+005 3.575502371370e+005 2.356885094790e+005 2.568820771007e+005 2.755137106816e+005 2.903531918190e+005 0.000000000000e+000 3.475720454435e+005 0.000000000000e+000 2.257411492858e+005 1.850739771600e+005 1.781485361949e+003 1.426727027239e+005 0.000000000000e+000 7.410357390816e+004 2.362621400560e+005 2.569117216140e+005 2.754666858262e+005 2.903094997077e+005 3.474999713610e+005 3.317454834306e+005 3.444357894970e+005 3.444317513710e+005 7.324915180331e+004 3.313143319222e+005 1.426917305035e+005 1.849804809750e+005 2.257121844142e+005 0.000000000000e+000 0.000000000000e+000 3.792243384549e+005 3.792335655953e+005 0.000000000000e+000 3.757136475747e+005 0.000000000000e+000 0.000000000000e+000 3.742750151782e+005 0.000000000000e+000 3.720887479421e+005 3.757218572666e+005 3.217119508667e+005 3.028733972137e+005 3.569946881814e+005 3.719976188980e+005 3.222906603477e+005 3.634096509876e+005 3.635547684361e+005 3.029379011455e+005 3.676890647130e+005 3.178734384926e+005 3.112487064264e+005 3.678435520888e+005 3.383142974021e+005 1.993224269787e+005 1.663864585360e+005 1.181201857315e+005 0.000000000000e+000 0.000000000000e+000 2.146162205251e+005 2.982256487301e+005 2.822026271095e+005 2.667492829023e+005 2.491221711189e+005 3.152711870121e+005 3.634884171757e+005 3.081180665337e+005 3.148187581702e+005 0.000000000000e+000 0.000000000000e+000 3.533901419608e+005 3.278923927354e+005 3.743032708735e+005 3.763808670971e+005 0.000000000000e+000 3.677431322015e+005 2.327951184140e+005 2.557951707722e+005 2.723680757759e+005 2.871229716981e+005 2.069915560590e+005 2.073301298003e+005 2.291569512694e+005 1.728742517335e+005 1.304509221253e+005 3.225921601469e+005 3.176467721197e+004 3.347827791248e+005 0.000000000000e+000 3.471188301107e+005 0.000000000000e+000 0.000000000000e+000 3.136326454608e+004 1.303889481478e+005 1.740372582745e+005 3.471364433051e+005 3.347893941736e+005 2.871024311296e+005 2.723868349737e+005 2.558168541585e+005 0.000000000000e+000 3.568410228577e+005 2.989817159322e+005 0.000000000000e+000 0.000000000000e+000 0.000000000000e+000 3.540194779950e+005 3.576601757480e+005 3.720758179349e+005 3.115288002537e+005 0.000000000000e+000 0.000000000000e+000 1.057168644990e+005 1.594971650343e+005 1.961852110656e+005 3.513893508514e+005 3.386561112652e+005 3.287349885054e+005 2.426448360466e+005 2.793224618063e+005 2.955725192433e+005 2.636385903634e+005 2.181744582080e+005 0.000000000000e+000 0.000000000000e+000 0.000000000000e+000 0.000000000000e+000 1.334891434909e+005 1.773827291604e+005 3.347257811295e+005 2.872433513590e+005 2.715271514329e+005 2.526356414836e+005 3.786114424288e+005 3.149639908463e+005 2.072963259439e+005 2.069319783816e+005 3.023477591274e+005 0.000000000000e+000 3.818558228283e+005 3.250571942710e+005 2.979254979722e+005 1.920147931701e+005 1.561094806164e+005 1.006049917560e+005 0.000000000000e+000 0.000000000000e+000 3.291326005330e+005 3.406923835760e+005 3.513278388740e+005 2.630463253929e+005 2.426572947643e+005 2.951761118353e+005 2.792078227395e+005 0.000000000000e+000 0.000000000000e+000 2.791828961567e+005 2.630267329609e+005 1.005583921975e+005 2.426615966604e+005 1.560608538244e+005 1.919431105840e+005 3.407124123137e+005 2.184240917973e+005 2.184831148190e+005 3.632790730989e+005 3.187035107739e+005 3.655119209309e+005 2.959174928842e+005 3.122821982015e+005 0.000000000000e+000 0.000000000000e+000 3.073779401166e+005 3.038969582938e+005 3.119297479174e+005 2.027333565821e+005 2.332868153096e+005 2.293176175781e+005 2.100175550931e+005 2.491472202414e+005 2.673578070766e+005 2.864017226416e+005 1.802449881640e+005 3.448411846595e+005 3.340645629703e+005 0.000000000000e+000 6.481252198163e+004 1.393649427384e+005 0.000000000000e+000 3.448374261869e+005 6.487646433928e+004 3.340581005330e+005 2.863920129036e+005 2.673316083125e+005 2.495302437913e+005 1.393720578051e+005 1.802584509454e+005 3.787039900285e+005 3.719503091068e+005 0.000000000000e+000 3.786984456642e+005 2.327044938541e+005 2.327752352158e+005 3.450876808539e+005 3.450982129450e+005 4.499342387947e+004 4.549939227341e+004 0.000000000000e+000 3.676413767775e+005 3.742116871489e+005 3.568277517991e+005 3.657584100605e+005 0.000000000000e+000 3.818550923564e+005 0.000000000000e+000 3.818543807525e+005 3.697731116953e+005 0.000000000000e+000 0.000000000000e+000 1.776682746471e+005 1.329744402929e+005 3.346533448743e+005 2.527086199938e+005 2.874250536821e+005 2.718642360085e+005 0.000000000000e+000 3.611062579022e+005 3.610632227481e+005 3.720881231798e+005 3.032849194683e+005 3.218631003316e+005 3.721134966016e+005 3.574070582419e+005 3.512308023754e+005 3.180047744768e+005 3.605649713366e+005 0.000000000000e+000 0.000000000000e+000 3.209157558450e+005 3.036620073332e+005 0.000000000000e+000 3.227098360607e+005 3.035203777493e+005 3.074666974215e+005 0.000000000000e+000 3.536805275436e+005 0.000000000000e+000 2.828162984592e+005 2.662445676018e+005 2.494551143048e+005 2.109929509915e+005 3.385187169293e+005 1.145232189504e+005 3.277944186202e+005 1.670743431905e+005 2.032664677780e+005 0.000000000000e+000 3.635510509784e+005 3.082012720716e+005 3.147268733294e+005 3.225701424082e+005 3.678628008958e+005 0.000000000000e+000 3.818530524767e+005 0.000000000000e+000 3.819977085783e+005 3.743413283171e+005 3.571953314719e+005 3.125465419066e+005 3.179987016587e+005 0.000000000000e+000 3.293580519365e+005 2.948035341271e+005 3.610768741612e+005 3.032223732168e+005 3.656534071228e+005 1.886119308053e+005 1.485337002568e+005 8.472752536491e+004 3.295496907002e+005 3.413863976923e+005 7.227797074762e+004 0.000000000000e+000 1.425839885128e+005 4.012145087667e+003 1.848666541713e+005 3.444722479979e+005 3.313375851340e+005 3.469996063026e+005 2.902705121886e+005 2.568218252640e+005 2.727912457261e+005 2.364757496972e+005 0.000000000000e+000 0.000000000000e+000 3.478023798130e+005 2.254098198284e+005 2.908112442250e+005 2.761470881845e+005 2.569837123055e+005 2.410713240390e+005 2.257829125055e+005 2.184573469002e+005 2.426505687998e+005 2.792234934676e+005 2.630909136369e+005 2.951782386337e+005 0.000000000000e+000 0.000000000000e+000 1.005176525045e+005 1.919504625302e+005 1.560181199346e+005 3.513207027616e+005 3.407075586022e+005 3.291514640988e+005 3.219049128072e+005 3.575506773489e+005 0.000000000000e+000 3.743366936671e+005 2.259412009948e+005 2.363436404826e+005 2.567212802006e+005 2.752423131437e+005 2.901668094640e+005 9.593658640246e+003 0.000000000000e+000 3.469061477859e+005 7.052379366382e+004 1.424524666824e+005 1.847196104470e+005 3.446583980013e+005 3.313947886441e+005 3.120714210180e+005 0.000000000000e+000 3.150099347897e+005 0.000000000000e+000 2.216448689831e+005 2.183714630669e+005 2.424638802148e+005 2.627223344009e+005 2.789638393263e+005 2.948842786756e+005 0.000000000000e+000 0.000000000000e+000 1.019338724782e+005 1.599124980874e+005 1.915323233716e+005 3.406137181542e+005 1.920744647571e+005 2.790972941734e+005 2.606221671655e+005 2.425046974507e+005 1.561574749000e+005 1.006461670697e+005 3.290983239862e+005 0.000000000000e+000 3.406719393746e+005 0.000000000000e+000 3.513255682072e+005 3.657334476163e+005 0.000000000000e+000 3.509490529565e+005 0.000000000000e+000 2.760946507764e+005 2.416371568418e+005 2.597144355331e+005 2.912170114928e+005 3.406238626949e+005 9.121007873466e+004 3.290211218659e+005 1.518752345137e+005 1.882674626531e+005 2.218493047794e+005 3.742493194678e+005 0.000000000000e+000 3.818568635966e+005 0.000000000000e+000 0.000000000000e+000 0.000000000000e+000 3.151659678929e+005 3.083471290827e+005 3.612153860277e+005 3.512666765442e+005 0.000000000000e+000 3.738526075644e+005 0.000000000000e+000 0.000000000000e+000 3.573362380033e+005 2.033251619669e+005 1.707363767595e+005 3.251556574114e+005 1.245580290858e+005 3.379445315415e+005 2.493631943009e+005 2.662513019792e+005 2.827620113627e+005 2.109869906924e+005 0.000000000000e+000 3.539153919745e+005 0.000000000000e+000 3.225823425500e+005 3.024125578787e+005 3.153459812658e+005 3.698981198310e+005 3.720772129447e+005 0.000000000000e+000 3.784147961506e+005 0.000000000000e+000 3.784167176485e+005 2.947614774842e+005 3.293428702235e+005 2.979251676819e+005 3.677835051707e+005 0.000000000000e+000 3.786143672584e+005 3.183328514959e+005 3.078366398253e+005 3.154464634489e+005 3.612365251074e+005 3.697992944224e+005 3.655691950436e+005 3.255216811989e+005 3.698040136761e+005 3.635856460829e+005 3.153089588422e+005 3.721859790979e+005 3.699842949130e+005 3.120390038520e+005 3.213212653152e+005 3.076663207650e+005 3.180694628699e+005 0.000000000000e+000 3.761553715840e+005 3.537936708693e+005 2.181257103747e+005 2.100871147646e+005 0.000000000000e+000 0.000000000000e+000 0.000000000000e+000 0.000000000000e+000 1.210550242602e+005 1.706843684934e+005 3.379556292359e+005 1.955633902688e+005 2.026877579065e+005 2.955545557962e+005 2.980505080854e+005 2.820071673310e+005 2.863475794759e+005 2.672613032592e+005 2.631577448182e+005 2.458893945379e+005 2.498804960658e+005 3.764174932812e+005 0.000000000000e+000 0.000000000000e+000 0.000000000000e+000 0.000000000000e+000 3.787306908603e+005 0.000000000000e+000 2.368758324179e+005 2.568194175142e+005 2.759736185654e+005 2.900249382179e+005 2.255675598368e+005 2.139115759258e+005 1.999308437314e+005 1.672278556352e+005 3.253091138567e+005 1.153344074989e+005 3.384595279770e+005 0.000000000000e+000 3.477708628520e+005 0.000000000000e+000 0.000000000000e+000 0.000000000000e+000 0.000000000000e+000 1.153563742027e+005 1.67226