<?xml version="1.0"?>
<VTKFile type="UnstructuredGrid" version="0.1" byte_order="LittleEndian">
  <UnstructuredGrid>
    <Piece NumberOfPoints="2604" NumberOfCells="4910">
      <Points>
        <DataArray type="Float64" NumberOfComponents="3" format="ascii">
          0.000000000000e+000 0.000000000000e+000 0.000000000000e+000
          2.000000000000e+002 0.000000000000e+000 0.000000000000e+000
          2.000000000000e+002 2.000000000000e+001 0.000000000000e+000
          0.000000000000e+000 2.000000000000e+001 0.000000000000e+000
          1.492537313427e+000 0.000000000000e+000 0.000000000000e+000
          2.985074626854e+000 0.000000000000e+000 0.000000000000e+000
          4.477611940281e+000 0.000000000000e+000 0.000000000000e+000
          5.970149253708e+000 0.000000000000e+000 0.000000000000e+000
          7.462686567135e+000 0.000000000000e+000 0.000000000000e+000
          8.955223880561e+000 0.000000000000e+000 0.000000000000e+000
          1.044776119399e+001 0.000000000000e+000 0.000000000000e+000
          1.194029850741e+001 0.000000000000e+000 0.000000000000e+000
          1.343283582084e+001 0.000000000000e+000 0.000000000000e+000
          1.492537313427e+001 0.000000000000e+000 0.000000000000e+000
          1.641791044770e+001 0.000000000000e+000 0.000000000000e+000
          1.791044776112e+001 0.000000000000e+000 0.000000000000e+000
          1.940298507455e+001 0.000000000000e+000 0.000000000000e+000
          2.089552238798e+001 0.000000000000e+000 0.000000000000e+000
          2.238805970141e+001 0.000000000000e+000 0.000000000000e+000
          2.388059701484e+001 0.000000000000e+000 0.000000000000e+000
          2.537313432826e+001 0.000000000000e+000 0.000000000000e+000
          2.686567164169e+001 0.000000000000e+000 0.000000000000e+000
          2.835820895511e+001 0.000000000000e+000 0.000000000000e+000
          2.985074626854e+001 0.000000000000e+000 0.000000000000e+000
          3.134328358196e+001 0.000000000000e+000 0.000000000000e+000
          3.283582089539e+001 0.000000000000e+000 0.000000000000e+000
          3.432835820881e+001 0.000000000000e+000 0.000000000000e+000
          3.582089552224e+001 0.000000000000e+000 0.000000000000e+000
          3.731343283566e+001 0.000000000000e+000 0.000000000000e+000
          3.880597014909e+001 0.000000000000e+000 0.000000000000e+000
          4.029850746251e+001 0.000000000000e+000 0.000000000000e+000
          4.179104477594e+001 0.000000000000e+000 0.000000000000e+000
          4.328358208936e+001 0.000000000000e+000 0.000000000000e+000
          4.477611940279e+001 0.000000000000e+000 0.000000000000e+000
          4.626865671621e+001 0.000000000000e+000 0.000000000000e+000
          4.776119402964e+001 0.000000000000e+000 0.000000000000e+000
          4.925373134306e+001 0.000000000000e+000 0.000000000000e+000
          5.074626865649e+001 0.000000000000e+000 0.000000000000e+000
          5.223880596991e+001 0.000000000000e+000 0.000000000000e+000
          5.373134328334e+001 0.000000000000e+000 0.000000000000e+000
          5.522388059676e+001 0.000000000000e+000 0.000000000000e+000
          5.671641791019e+001 0.000000000000e+000 0.000000000000e+000
          5.820895522361e+001 0.000000000000e+000 0.000000000000e+000
          5.970149253704e+001 0.000000000000e+000 0.000000000000e+000
          6.119402985046e+001 0.000000000000e+000 0.000000000000e+000
          6.268656716389e+001 0.000000000000e+000 0.000000000000e+000
          6.417910447732e+001 0.000000000000e+000 0.000000000000e+000
          6.567164179075e+001 0.000000000000e+000 0.000000000000e+000
          6.716417910418e+001 0.000000000000e+000 0.000000000000e+000
          6.865671641761e+001 0.000000000000e+000 0.000000000000e+000
          7.014925373104e+001 0.000000000000e+000 0.000000000000e+000
          7.164179104447e+001 0.000000000000e+000 0.000000000000e+000
          7.313432835790e+001 0.000000000000e+000 0.000000000000e+000
          7.462686567133e+001 0.000000000000e+000 0.000000000000e+000
          7.611940298476e+001 0.000000000000e+000 0.000000000000e+000
          7.761194029819e+001 0.000000000000e+000 0.000000000000e+000
          7.910447761162e+001 0.000000000000e+000 0.000000000000e+000
          8.059701492505e+001 0.000000000000e+000 0.000000000000e+000
          8.208955223848e+001 0.000000000000e+000 0.000000000000e+000
          8.358208955191e+001 0.000000000000e+000 0.000000000000e+000
          8.507462686534e+001 0.000000000000e+000 0.000000000000e+000
          8.656716417877e+001 0.000000000000e+000 0.000000000000e+000
          8.805970149220e+001 0.000000000000e+000 0.000000000000e+000
          8.955223880563e+001 0.000000000000e+000 0.000000000000e+000
          9.104477611907e+001 0.000000000000e+000 0.000000000000e+000
          9.253731343250e+001 0.000000000000e+000 0.000000000000e+000
          9.402985074593e+001 0.000000000000e+000 0.000000000000e+000
          9.552238805936e+001 0.000000000000e+000 0.000000000000e+000
          9.701492537279e+001 0.000000000000e+000 0.000000000000e+000
          9.850746268622e+001 0.000000000000e+000 0.000000000000e+000
          9.999999999965e+001 0.000000000000e+000 0.000000000000e+000
          1.014925373131e+002 0.000000000000e+000 0.000000000000e+000
          1.029850746265e+002 0.000000000000e+000 0.000000000000e+000
          1.044776119399e+002 0.000000000000e+000 0.000000000000e+000
          1.059701492534e+002 0.000000000000e+000 0.000000000000e+000
          1.074626865668e+002 0.000000000000e+000 0.000000000000e+000
          1.089552238802e+002 0.000000000000e+000 0.000000000000e+000
          1.104477611937e+002 0.000000000000e+000 0.000000000000e+000
          1.119402985071e+002 0.000000000000e+000 0.000000000000e+000
          1.134328358205e+002 0.000000000000e+000 0.000000000000e+000
          1.149253731340e+002 0.000000000000e+000 0.000000000000e+000
          1.164179104474e+002 0.000000000000e+000 0.000000000000e+000
          1.179104477608e+002 0.000000000000e+000 0.000000000000e+000
          1.194029850742e+002 0.000000000000e+000 0.000000000000e+000
          1.208955223877e+002 0.000000000000e+000 0.000000000000e+000
          1.223880597011e+002 0.000000000000e+000 0.000000000000e+000
          1.238805970145e+002 0.000000000000e+000 0.000000000000e+000
          1.253731343280e+002 0.000000000000e+000 0.000000000000e+000
          1.268656716414e+002 0.000000000000e+000 0.000000000000e+000
          1.283582089548e+002 0.000000000000e+000 0.000000000000e+000
          1.298507462683e+002 0.000000000000e+000 0.000000000000e+000
          1.313432835817e+002 0.000000000000e+000 0.000000000000e+000
          1.328358208952e+002 0.000000000000e+000 0.000000000000e+000
          1.343283582086e+002 0.000000000000e+000 0.000000000000e+000
          1.358208955220e+002 0.000000000000e+000 0.000000000000e+000
          1.373134328355e+002 0.000000000000e+000 0.000000000000e+000
          1.388059701489e+002 0.000000000000e+000 0.000000000000e+000
          1.402985074624e+002 0.000000000000e+000 0.000000000000e+000
          1.417910447758e+002 0.000000000000e+000 0.000000000000e+000
          1.432835820892e+002 0.000000000000e+000 0.000000000000e+000
          1.447761194027e+002 0.000000000000e+000 0.000000000000e+000
          1.462686567161e+002 0.000000000000e+000 0.000000000000e+000
          1.477611940296e+002 0.000000000000e+000 0.000000000000e+000
          1.492537313430e+002 0.000000000000e+000 0.000000000000e+000
          1.507462686564e+002 0.000000000000e+000 0.000000000000e+000
          1.522388059699e+002 0.000000000000e+000 0.000000000000e+000
          1.537313432833e+002 0.000000000000e+000 0.000000000000e+000
          1.552238805968e+002 0.000000000000e+000 0.000000000000e+000
          1.567164179102e+002 0.000000000000e+000 0.000000000000e+000
          1.582089552237e+002 0.000000000000e+000 0.000000000000e+000
          1.597014925371e+002 0.000000000000e+000 0.000000000000e+000
          1.611940298505e+002 0.000000000000e+000 0.000000000000e+000
          1.626865671640e+002 0.000000000000e+000 0.000000000000e+000
          1.641791044774e+002 0.000000000000e+000 0.000000000000e+000
          1.656716417909e+002 0.000000000000e+000 0.000000000000e+000
          1.671641791043e+002 0.000000000000e+000 0.000000000000e+000
          1.686567164177e+002 0.000000000000e+000 0.000000000000e+000
          1.701492537312e+002 0.000000000000e+000 0.000000000000e+000
          1.716417910446e+002 0.000000000000e+000 0.000000000000e+000
          1.731343283581e+002 0.000000000000e+000 0.000000000000e+000
          1.746268656715e+002 0.000000000000e+000 0.000000000000e+000
          1.761194029849e+002 0.000000000000e+000 0.000000000000e+000
          1.776119402984e+002 0.000000000000e+000 0.000000000000e+000
          1.791044776118e+002 0.000000000000e+000 0.000000000000e+000
          1.805970149253e+002 0.000000000000e+000 0.000000000000e+000
          1.820895522387e+002 0.000000000000e+000 0.000000000000e+000
          1.835820895521e+002 0.000000000000e+000 0.000000000000e+000
          1.850746268656e+002 0.000000000000e+000 0.000000000000e+000
          1.865671641790e+002 0.000000000000e+000 0.000000000000e+000
          1.880597014925e+002 0.000000000000e+000 0.000000000000e+000
          1.895522388059e+002 0.000000000000e+000 0.000000000000e+000
          1.910447761194e+002 0.000000000000e+000 0.000000000000e+000
          1.925373134328e+002 0.000000000000e+000 0.000000000000e+000
          1.940298507462e+002 0.000000000000e+000 0.000000000000e+000
          1.955223880597e+002 0.000000000000e+000 0.000000000000e+000
          1.970149253731e+002 0.000000000000e+000 0.000000000000e+000
          1.985074626866e+002 0.000000000000e+000 0.000000000000e+000
          2.000000000000e+002 1.428571428570e+000 0.000000000000e+000
          2.000000000000e+002 2.857142857140e+000 0.000000000000e+000
[...]
      <PointData Scalars="Capillary_Pressure">
        <DataArray type="Float64" Name="Capillary_Pressure" format="ascii">
          3.856250498503e+005 0.000000000000e+000 0.000000000000e+000 3.856273458328e+005 3.858528625635e+005 3.831197643470e+005 3.822578048234e+005 3.803261808926e+005 3.800532964047e+005 3.781581086830e+005 3.761302168715e+005 3.760542432714e+005 3.738851581882e+005 3.737170732159e+005 3.718406630358e+005 3.694691308077e+005 3.695111365689e+005 3.674933771307e+005 3.670845356745e+005 3.649800037032e+005 3.615846260849e+005 3.613794820176e+005 3.608138808093e+005 3.578080944924e+005 3.574726448686e+005 3.552865401086e+005 3.546616556175e+005 3.515197217725e+005 3.510192286504e+005 3.489532186341e+005 3.483156494376e+005 3.451152877453e+005 3.445899647477e+005 3.426115200102e+005 3.418750738657e+005 3.382741192975e+005 3.381900430237e+005 3.355803443929e+005 3.331887577996e+005 3.329029777251e+005 3.321077849348e+005 3.289477277017e+005 3.262745352067e+005 3.259037222668e+005 3.222411065638e+005 3.217727444165e+005 3.189423844915e+005 3.184529505874e+005 3.160129675606e+005 3.151054881459e+005 3.110167363903e+005 3.108273418105e+005 3.069703484934e+005 3.064119669724e+005 3.024482398684e+005 3.010830647413e+005 2.988966362520e+005 2.984312484139e+005 2.973026654283e+005 2.935100637790e+005 2.902875101278e+005 2.899154487167e+005 2.858653985096e+005 2.851637020807e+005 2.822391415879e+005 2.788608265540e+005 2.758487378861e+005 2.752291083894e+005 2.706782144107e+005 2.690755948269e+005 2.664627081749e+005 2.633098547737e+005 2.624507379417e+005 2.595728370353e+005 2.558371474183e+005 2.525071660207e+005 2.519598440024e+005 2.484144127385e+005 2.451701436661e+005 2.438564049776e+005 2.381500162650e+005 2.347686991834e+005 2.316281246818e+005 2.280218630843e+005 2.244865375896e+005 2.207564236137e+005 2.200273794830e+005 2.165135835820e+005 2.126259954750e+005 2.090850090735e+005 2.018621971284e+005 1.979884790360e+005 1.940624481284e+005 1.897010446068e+005 1.870583112914e+005 1.794818121360e+005 1.749580260219e+005 1.724714109274e+005 1.643149011139e+005 1.580834819761e+005 1.550074146353e+005 1.448690306227e+005 1.383273908254e+005 1.312394425344e+005 1.224619839617e+005 1.132357593840e+005 1.031542092578e+005 9.093262408722e+004 7.744659834455e+004 6.059569901239e+004 3.864801723987e+004 7.172580682528e+003 0.000000000000e+000 0.000000000000e+000 0.000000000000e+000 0.000000000000e+000 0.000000000000e+000 0.000000000000e+000 0.000000000000e+000 0.000000000000e+000 0.000000000000e+000 0.000000000000e+000 0.000000000000e+000 0.000000000000e+000 0.000000000000e+000 0.000000000000e+000 0.000000000000e+000 0.000000000000e+000 0.000000000000e+000 0.000000000000e+000 0.000000000000e+000 0.000000000000e+000 0.000000000000e+000 0.000000000000e+000 0.000000000000e+000 0.000000000000e+000 0.000000000000e+000 0.000000000000e+000 0.000000000000e+000 0.000000000000e+000 0.000000000000e+000 0.000000000000e+000 0.000000000000e+000 0.000000000000e+000 0.000000000000e+000 0.000000000000e+000 0.000000000000e+000 0.000000000000e+000 0.000000000000e+000 0.000000000000e+000 0.000000000000e+000 0.000000000000e+000 0.000000000000e+000 0.000000000000e+000 0.000000000000e+000 0.000000000000e+000 0.000000000000e+000 0.000000000000e+000 0.000000000000e+000 0.000000000000e+000 0.000000000000e+000 0.000000000000e+000 0.000000000000e+000 0.000000000000e+000 0.000000000000e+000 0.000000000000e+000 0.000000000000e+000 0.000000000000e+000 0.000000000000e+000 0.000000000000e+000 0.000000000000e+000 0.000000000000e+000 0.000000000000e+000 0.000000000000e+000 0.000000000000e+000 7.167866098942e+003 3.863609016348e+004 6.056644379027e+004 7.743770076812e+004 9.091756154012e+004 1.031574400604e+005 1.132569987211e+005 1.224502562421e+005 1.312370750345e+005 1.383208823897e+005 1.448618465788e+005 1.550039729289e+005 1.580752849626e+005 1.642980639503e+005 1.724645610854e+005 1.749550117201e+005 1.794866402594e+005 1.870486531523e+005 1.896968144401e+005 1.940527853400e+005 1.979700452106e+005 2.018434870212e+005 2.090776409154e+005 2.126313673026e+005 2.165177713195e+005 2.200261395482e+005 2.207544734228e+005 2.244952220281e+005 2.280322570742e+005 2.316185597638e+005 2.347733206718e+005 2.381294083741e+005 2.438472792948e+005 2.451534085522e+005 2.484191026642e+005 2.519451951547e+005 2.524950555605e+005 2.558236459239e+005 2.595613249180e+005 2.624651760856e+005 2.658091128431e+005 2.664623224729e+005 2.690584706180e+005 2.706552096149e+005 2.752420883016e+005 2.784215568580e+005 2.788470460297e+005 2.821740230328e+005 2.851669719119e+005 2.858685318948e+005 2.899156535085e+005 2.902947845111e+005 2.935395751748e+005 2.972992978612e+005 2.984360827834e+005 2.989115147486e+005 3.011055901177e+005 3.054497848920e+005 3.064329822657e+005 3.069710746365e+005 3.108331981471e+005 3.110582838756e+005 3.150868227431e+005 3.159832757761e+005 3.184399096753e+005 3.189220773549e+005 3.217544505220e+005 3.250164435163e+005 3.259032209386e+005 3.262624101234e+005 3.289419639943e+005 3.321107667983e+005 3.329054198720e+005 3.331810886674e+005 3.355821346122e+005 3.381908289716e+005 3.382723649270e+005 3.418719999734e+005 3.426077409315e+005 3.445874323855e+005 3.451184209963e+005 3.483133774910e+005 3.489522531632e+005 3.510183581418e+005 3.515138605603e+005 3.546628444718e+005 3.552809417936e+005 3.574728866821e+005 3.578120602077e+005 3.608136749233e+005 3.613828224054e+005 3.615930996419e+005 3.649701562874e+005 3.670815237094e+005 3.674944813203e+005 3.695192821635e+005 3.694614447909e+005 3.718225887652e+005 3.718809707963e+005 3.739024976553e+005 3.760506955026e+005 3.761238651495e+005 3.781647293246e+005 3.800595952764e+005 3.803397624103e+005 3.822170508404e+005 3.831220460494e+005 3.858524129117e+005 3.856267618839e+005 3.856243277547e+005 3.856278618104e+005 3.856266514541e+005 3.856243197327e+005 3.856253293747e+005 3.856256609978e+005 3.856239699562e+005 3.856246518325e+005 3.856264071244e+005 3.856261328976e+005 3.856236197692e+005 3.856244056535e+005 0.000000000000e+000 3.781404287901e+005 0.000000000000e+000 0.000000000000e+000 5.169696287794e+004 1.351683470099e+005 1.795144301053e+005 3.611726491828e+005 2.087042272559e+005 3.489874426582e+005 3.384564726684e+005 3.261694226777e+005 3.060663860256e+005 2.905286457115e+005 2.747045066858e+005 2.554563502229e+005 2.351123161889e+005 3.697077790767e+005 3.160018747038e+005 2.207396557194e+005 2.237617036970e+005 2.451490705087e+005 2.658149273033e+005 2.821581582232e+005 2.984379808885e+005 0.000000000000e+000 0.000000000000e+000 1.019457380175e+005 2.984340439867e+005 2.823473628841e+005 2.656619979396e+005 2.447871251646e+005 1.578903493350e+005 1.940477367697e+005 3.552956671225e+005 3.446626831896e+005 3.328338196271e+005 1.939883572949e+005 1.580583867300e+005 1.031365903358e+005 0.000000000000e+000 0.000000000000e+000 3.329307817317e+005 3.445917960799e+005 3.552728715870e+005 0.000000000000e+000 0.000000000000e+000 3.190406015022e+005 3.113797675883e+005 3.737146087834e+005 3.649708401860e+005 0.000000000000e+000 3.803342150870e+005 0.000000000000e+000 3.803422299273e+005 3.734741259649e+005 3.650170125189e+005 3.219030616696e+005 3.105910911033e+005 0.000000000000e+000 2.351029579307e+005 0.000000000000e+000 2.554513929239e+005 2.746951920926e+005 2.905131261281e+005 3.056910852092e+005 2.087556218772e+005 5.003915730976e+004 1.342761474602e+005 1.794719495820e+005 3.490252492018e+005 3.385246376947e+005 2.096898824622e+005 1.796279747181e+005 1.350899070256e+005 5.060321005118e+004 2.905284162877e+005 2.746893379871e+005 2.554741841792e+005 0.000000000000e+000 2.350905220624e+005 0.000000000000e+000 3.262366606940e+005 3.384797169759e+005 3.490187903200e+005 3.611748474206e+005 0.000000000000e+000 0.000000000000e+000 3.761225229455e+005 3.608024747871e+005 3.022692207999e+005 3.284355143536e+005 0.000000000000e+000 3.822717151368e+005 3.696935007318e+005 3.781045523783e+005 3.697098493123e+005 3.160502281703e+005 3.215175161341e+005 3.110786022406e+005 3.738954876839e+005 3.649391060122e+005 3.159737830605e+005 0.000000000000e+000 9.289922145587e+004 0.000000000000e+000 1.551201626033e+005 0.000000000000e+000 1.901262411320e+005 2.440553170222e+005 2.790288002342e+005 2.944555039077e+005 2.625724659015e+005 3.546788486023e+005 3.331269461643e+005 3.446270495760e+005 2.243683601272e+005 3.160076055699e+005 0.000000000000e+000 3.831091841242e+005 0.000000000000e+000 3.831046765746e+005 2.395283160350e+005 2.596948555009e+005 2.790575532889e+005 2.939647206069e+005 2.018794489141e+005 2.278646357086e+005 2.165822969238e+005 1.689820584664e+005 3.291405755581e+005 1.168037378529e+005 3.423961201995e+005 0.000000000000e+000 3.518057135548e+005 0.000000000000e+000 0.000000000000e+000 0.000000000000e+000 0.000000000000e+000 0.000000000000e+000 1.176136293815e+005 8.676733308075e+004 1.691226644610e+005 1.516994965339e+005 3.517432237756e+005 1.905560963032e+005 2.018979247362e+005 3.423492541940e+005 3.453050429286e+005 2.939490495354e+005 2.790367071421e+005 2.596202783040e+005 2.854922711857e+005 2.668104045363e+005 2.434640682188e+005 2.480705884591e+005 3.332314483796e+005 2.165636843944e+005 2.276087074885e+005 0.000000000000e+000 3.576422915118e+005 0.000000000000e+000 3.452323711834e+005 8.878577856122e+004 3.333147603110e+005 1.511021752000e+005 3.013058535658e+005 2.856251740357e+005 2.669485202300e+005 2.512408575950e+005 1.907119705186e+005 3.696888608811e+005 0.000000000000e+000 0.000000000000e+000 3.104331008080e+005 3.244629650006e+005 3.647861810570e+005 2.166805069136e+005 2.667965617076e+005 2.480141570608e+005 2.854457764968e+005 3.012865967948e+005 3.576130850988e+005 3.424470995102e+005 0.000000000000e+000 3.291722126603e+005 0.000000000000e+000 1.182556597290e+005 2.017628651493e+005 1.652046719821e+005 3.574792674676e+005 0.000000000000e+000 0.000000000000e+000 3.145943525347e+005 3.738874946777e+005 0.000000000000e+000 2.163758948468e+005 2.052554032657e+005 1.725805654798e+005 3.287628871702e+005 1.232255151410e+005 3.418297657195e+005 2.859319920192e+005 2.691137219107e+005 2.520252077915e+005 0.000000000000e+000 3.578075960678e+005 0.000000000000e+000 3.672710672975e+005 3.015278802947e+005 0.000000000000e+000 0.000000000000e+000 0.000000000000e+000 2.987886914348e+005 3.321964118976e+005 3.068986877881e+005 3.251579825496e+005 3.800677132547e+005 3.615488205195e+005 3.760186175636e+005 3.717571281247e+005 3.615441746801e+005 2.381605761331e+005 2.595762604627e+005 2.784493017471e+005 2.935520421060e+005 5.283300448176e+003 3.515232840273e+005 0.000000000000e+000 2.280858060894e+005 1.870736926512e+005 8.628166534599e+003 1.447560363241e+005 0.000000000000e+000 7.738509452435e+004 2.387156170928e+005 2.595946135148e+005 2.783888832357e+005 2.934983629493e+005 3.514574410567e+005 3.355537487930e+005 3.483281049940e+005 3.483268395528e+005 7.657075966947e+004 3.351334642086e+005 1.447718018399e+005 1.869855594942e+005 2.280614181077e+005 0.000000000000e+000 0.000000000000e+000 3.831067324848e+005 3.831132534680e+005 0.000000000000e+000 3.796268771523e+005 0.000000000000e+000 0.000000000000e+000 3.782050160442e+005 0.000000000000e+000 3.760354894714e+005 3.796382409015e+005 3.253461768300e+005 3.063084592907e+005 3.609888142999e+005 3.759430801368e+005 3.259559934715e+005 3.673814044126e+005 3.675239391872e+005 3.063235697552e+005 3.716520932668e+005 3.214611667888e+005 3.147293492796e+005 3.718124096800e+005 3.421534082415e+005 2.014487697281e+005 1.683998345498e+005 1.204169660336e+005 0.000000000000e+000 0.000000000000e+000 2.168124775851e+005 3.015542578563e+005 2.853091793302e+005 2.695851540376e+005 2.516786898777e+005 3.188495166514e+005 3.674595346596e+005 3.116304294222e+005 3.184240855034e+005 0.000000000000e+000 0.000000000000e+000 3.573608907685e+005 3.315732181210e+005 3.782353057298e+005 3.802918633365e+005 0.000000000000e+000 3.717088444370e+005 2.352254378710e+005 2.584489083969e+005 2.752925989556e+005 2.903292283298e+005 2.091041095720e+005 2.094995235600e+005 2.315494511399e+005 1.748962250815e+005 1.325865802216e+005 3.262924165076e+005 3.709057786035e+004 3.386337146799e+005 0.000000000000e+000 3.510396882801e+005 0.000000000000e+000 0.000000000000e+000 3.671861701548e+004 1.325219486329e+005 1.760300638557e+005 3.510557081733e+005 3.386428148547e+005 2.903028682231e+005 2.753041029254e+005 2.584604015905e+005 0.000000000000e+000 3.607951394864e+005 3.023695865766e+005 0.000000000000e+000 0.000000000000e+000 0.000000000000e+000 3.580100067923e+005 3.616486935233e+005 3.760215426110e+005 3.150221713884e+005 0.000000000000e+000 0.000000000000e+000 1.082103607045e+005 1.615145958611e+005 1.982351229196e+005 3.553589848042e+005 3.425388707097e+005 3.324640239841e+005 2.451946802602e+005 2.823579739056e+005 2.988593415223e+005 2.664277174107e+005 2.204085387250e+005 0.000000000000e+000 0.000000000000e+000 0.000000000000e+000 0.000000000000e+000 1.355982221364e+005 1.793615640861e+005 3.385522163356e+005 2.903618456434e+005 2.743887002363e+005 2.552526510487e+005 3.824925969522e+005 3.184987015998e+005 2.094323986086e+005 2.091184444988e+005 3.057081857907e+005 0.000000000000e+000 3.856950775290e+005 3.287701263687e+005 3.012784891984e+005 1.940987681467e+005 1.581376894124e+005 1.031915476572e+005 0.000000000000e+000 0.000000000000e+000 3.328792547895e+005 3.445732025781e+005 3.552842555290e+005 2.658095473015e+005 2.451577396359e+005 2.984360754485e+005 2.822361056705e+005 0.000000000000e+000 0.000000000000e+000 2.822331474790e+005 2.657932854219e+005 1.031415635198e+005 2.451606166643e+005 1.580889351428e+005 1.940217750122e+005 3.445968624339e+005 2.207084827229e+005 2.207667135693e+005 3.672489194165e+005 3.223571764767e+005 3.694688367044e+005 2.992507556907e+005 3.158104056560e+005 0.000000000000e+000 0.000000000000e+000 3.108412283120e+005 3.073554771057e+005 3.154411942954e+005 2.048825645200e+005 2.357075542294e+005 2.316669604991e+005 2.122201175870e+005 2.517763436815e+005 2.702395525200e+005 2.895035628564e+005 1.822843373835e+005 3.487480617801e+005 3.378562950490e+005 0.000000000000e+000 6.844917497839e+004 1.414612716760e+005 0.000000000000e+000 3.487456183546e+005 6.850967865066e+004 3.378529904447e+005 2.895031538819e+005 2.702188152914e+005 2.521602506127e+005 1.414669794381e+005 1.822900976838e+005 3.825874323002e+005 3.758968796309e+005 0.000000000000e+000 3.825801497655e+005 2.350647779833e+005 2.351560681693e+005 3.490296117633e+005 3.490346448957e+005 4.956668260662e+004 5.004589669548e+004 0.000000000000e+000 3.716109781399e+005 3.781374182667e+005 3.607785835151e+005 3.697209619735e+005 0.000000000000e+000 3.856980950414e+005 0.000000000000e+000 3.856960992009e+005 3.737350197546e+005 0.000000000000e+000 0.000000000000e+000 1.796608899552e+005 1.351152147731e+005 3.384759156938e+005 2.553430242172e+005 2.905663645294e+005 2.747446067856e+005 0.000000000000e+000 3.650756907628e+005 3.650333866254e+005 3.760362341759e+005 3.066969193664e+005 3.255046184423e+005 3.760568116025e+005 3.613910162609e+005 3.551819255184e+005 3.216071970633e+005 3.645253660761e+005 0.000000000000e+000 0.000000000000e+000 3.245345191798e+005 3.071055781933e+005 0.000000000000e+000 3.264047249418e+005 3.069645967488e+005 3.109192734120e+005 0.000000000000e+000 3.576384068566e+005 0.000000000000e+000 2.859274119090e+005 2.691271217234e+005 2.520196391134e+005 2.131691321201e+005 3.423753182190e+005 1.168717572789e+005 3.315056200532e+005 1.690403385404e+005 2.053600750357e+005 0.000000000000e+000 3.675127337092e+005 3.117183223141e+005 3.182878047965e+005 3.262512442849e+005 3.718448750486e+005 0.000000000000e+000 3.856991340796e+005 0.000000000000e+000 3.858394425724e+005 3.782735000015e+005 3.611538789829e+005 3.160977495521e+005 3.215917588271e+005 0.000000000000e+000 3.331285046006e+005 2.980450802792e+005 3.650444153951e+005 3.066259108611e+005 3.695839498959e+005 1.906128849580e+005 1.505785395067e+005 8.769073066213e+004 3.333650361943e+005 3.453058573566e+005 7.563481531668e+004 0.000000000000e+000 1.446579175471e+005 1.079371997098e+004 1.868676077619e+005 3.483636666690e+005 3.351699931098e+005 3.509605188263e+005 2.934560440472e+005 2.594851092719e+005 2.757516213080e+005 2.389092244365e+005 0.000000000000e+000 0.000000000000e+000 3.517656949441e+005 2.277050156613e+005 2.940387415778e+005 2.791416611951e+005 2.597631174288e+005 2.434900098262e+005 2.281526199544e+005 2.207416378903e+005 2.451503051224e+005 2.822381884465e+005 2.658262568515e+005 2.984395893429e+005 0.000000000000e+000 0.000000000000e+000 1.031004828053e+005 1.940443129104e+005 1.580527132913e+005 3.552769044023e+005 3.445960190214e+005 3.329062377125e+005 3.255603715358e+005 3.615329773339e+005 0.000000000000e+000 3.782672111247e+005 2.282961147030e+005 2.387763116733e+005 2.593841800695e+005 2.781712189804e+005 2.933434536513e+005 1.617084267257e+004 0.000000000000e+000 3.508625184164e+005 7.394564980432e+004 1.445241477747e+005 1.867192115600e+005 3.485559615899e+005 3.352155278691e+005 3.156643989445e+005 0.000000000000e+000 3.185609412787e+005 0.000000000000e+000 2.238961081760e+005 2.206391272759e+005 2.449476758062e+005 2.654919718500e+005 2.819991749607e+005 2.981202732752e+005 0.000000000000e+000 0.000000000000e+000 1.044985832219e+005 1.618897696981e+005 1.935984302231e+005 3.444865871822e+005 1.941686949174e+005 2.821105217504e+005 2.634509440584e+005 2.449990761570e+005 1.581866139565e+005 1.032356307510e+005 3.328440596197e+005 0.000000000000e+000 3.445511463861e+005 0.000000000000e+000 3.552812609640e+005 3.697077895306e+005 0.000000000000e+000 3.548876626821e+005 0.000000000000e+000 2.790764460494e+005 2.441195834113e+005 2.624522556090e+005 2.944901858742e+005 3.445198716958e+005 9.400540877662e+004 3.328308369623e+005 1.539065695588e+005 1.903533844338e+005 2.241544974181e+005 3.781758925962e+005 0.000000000000e+000 3.856995178511e+005 0.000000000000e+000 0.000000000000e+000 0.000000000000e+000 3.187198293430e+005 3.118769144666e+005 3.651914110634e+005 3.552184814484e+005 0.000000000000e+000 3.777834308456e+005 0.000000000000e+000 0.000000000000e+000 3.613054073688e+005 2.054309648689e+005 1.727158503359e+005 3.288611564695e+005 1.267415884959e+005 3.417711649551e+005 2.519286868035e+005 2.691212044355e+005 2.858580631058e+005 2.131827574738e+005 0.000000000000e+000 3.578946221430e+005 0.000000000000e+000 3.262662144750e+005 3.057766474930e+005 3.189672092653e+005 3.738585276684e+005 3.760185613028e+005 0.000000000000e+000 3.823002338011e+005 0.000000000000e+000 3.823007539181e+005 2.979954408747e+005 3.331117291996e+005 3.012885386778e+005 3.717407421041e+005 0.000000000000e+000 3.825010769459e+005 3.219634281878e+005 3.113064748806e+005 3.190700153200e+005 3.652142925854e+005 3.737566006381e+005 3.695538950737e+005 3.292760031630e+005 3.737626327895e+005 3.675560851246e+005 3.188668753379e+005 3.761322452084e+005 3.739451995248e+005 3.155591409368e+005 3.249327882291e+005 3.111282906377e+005 3.216808088685e+005 0.000000000000e+000 3.800654855408e+005 3.577577642368e+005 2.203436774680e+005 2.122896855880e+005 0.000000000000e+000 0.000000000000e+000 0.000000000000e+000 0.000000000000e+000 1.233207720437e+005 1.726608051502e+005 3.417874049243e+005 1.976565067040e+005 2.048207063161e+005 2.988648266039e+005 3.014125219502e+005 2.850914138543e+005 2.894396074755e+005 2.701444995209e+005 2.660022971768e+005 2.484125081359e+005 2.524745654145e+005 3.803265044402e+005 0.000000000000e+000 0.000000000000e+000 0.000000000000e+000 0.000000000000e+000 3.826133959206e+005 0.000000000000e+000 2.393499582131e+005 2.595582087268e+005 2.789465877598e+005 2.932736591699e+005 2.278728956613e+005 2.161241353327e+005 2.020213595640e+005 1.692001709948e+005 3.290424765070e+005 1.176733198490e+005 3.423133230072e+005 0.000000000000e+000 3.517339481896e+005 0.000000000000e+000 0.000000000000e+000 0.000000000000e+000 0.000000000000e+000 1.176949490252e+005 1.69199