<?xml version="1.0"?>
<VTKFile type="UnstructuredGrid" version="0.1" byte_order="LittleEndian">
  <UnstructuredGrid>
    <Piece NumberOfPoints="2604" NumberOfCells="4910">
      <Points>
        <DataArray type="Float64" NumberOfComponents="3" format="ascii">
          0.000000000000e+000 0.000000000000e+000 0.000000000000e+000
          2.000000000000e+002 0.000000000000e+000 0.000000000000e+000
          2.000000000000e+002 2.000000000000e+001 0.000000000000e+000
          0.000000000000e+000 2.000000000000e+001 0.000000000000e+000
          1.492537313427e+000 0.000000000000e+000 0.000000000000e+000
          2.985074626854e+000 0.000000000000e+000 0.000000000000e+000
          4.477611940281e+000 0.000000000000e+000 0.000000000000e+000
          5.970149253708e+000 0.000000000000e+000 0.000000000000e+000
          7.462686567135e+000 0.000000000000e+000 0.000000000000e+000
          8.955223880561e+000 0.000000000000e+000 0.000000000000e+000
          1.044776119399e+001 0.000000000000e+000 0.000000000000e+000
          1.194029850741e+001 0.000000000000e+000 0.000000000000e+000
          1.343283582084e+001 0.000000000000e+000 0.000000000000e+000
          1.492537313427e+001 0.000000000000e+000 0.000000000000e+000
          1.641791044770e+001 0.000000000000e+000 0.000000000000e+000
          1.791044776112e+001 0.000000000000e+000 0.000000000000e+000
          1.940298507455e+001 0.000000000000e+000 0.000000000000e+000
          2.089552238798e+001 0.000000000000e+000 0.000000000000e+000
          2.238805970141e+001 0.000000000000e+000 0.000000000000e+000
          2.388059701484e+001 0.000000000000e+000 0.000000000000e+000
          2.537313432826e+001 0.000000000000e+000 0.000000000000e+000
          2.686567164169e+001 0.000000000000e+000 0.000000000000e+000
          2.835820895511e+001 0.000000000000e+000 0.000000000000e+000
          2.985074626854e+001 0.000000000000e+000 0.000000000000e+000
          3.134328358196e+001 0.000000000000e+000 0.000000000000e+000
          3.283582089539e+001 0.000000000000e+000 0.000000000000e+000
          3.432835820881e+001 0.000000000000e+000 0.000000000000e+000
          3.582089552224e+001 0.000000000000e+000 0.000000000000e+000
          3.731343283566e+001 0.000000000000e+000 0.000000000000e+000
          3.880597014909e+001 0.000000000000e+000 0.000000000000e+000
          4.029850746251e+001 0.000000000000e+000 0.000000000000e+000
          4.179104477594e+001 0.000000000000e+000 0.000000000000e+000
          4.328358208936e+001 0.000000000000e+000 0.000000000000e+000
          4.477611940279e+001 0.000000000000e+000 0.000000000000e+000
          4.626865671621e+001 0.000000000000e+000 0.000000000000e+000
          4.776119402964e+001 0.000000000000e+000 0.000000000000e+000
          4.925373134306e+001 0.000000000000e+000 0.000000000000e+000
          5.074626865649e+001 0.000000000000e+000 0.000000000000e+000
          5.223880596991e+001 0.000000000000e+000 0.000000000000e+000
          5.373134328334e+001 0.000000000000e+000 0.000000000000e+000
          5.522388059676e+001 0.000000000000e+000 0.000000000000e+000
          5.671641791019e+001 0.000000000000e+000 0.000000000000e+000
          5.820895522361e+001 0.000000000000e+000 0.000000000000e+000
          5.970149253704e+001 0.000000000000e+000 0.000000000000e+000
          6.119402985046e+001 0.000000000000e+000 0.000000000000e+000
          6.268656716389e+001 0.000000000000e+000 0.000000000000e+000
          6.417910447732e+001 0.000000000000e+000 0.000000000000e+000
          6.567164179075e+001 0.000000000000e+000 0.000000000000e+000
          6.716417910418e+001 0.000000000000e+000 0.000000000000e+000
          6.865671641761e+001 0.000000000000e+000 0.000000000000e+000
          7.014925373104e+001 0.000000000000e+000 0.000000000000e+000
          7.164179104447e+001 0.000000000000e+000 0.000000000000e+000
          7.313432835790e+001 0.000000000000e+000 0.000000000000e+000
          7.462686567133e+001 0.000000000000e+000 0.000000000000e+000
          7.611940298476e+001 0.000000000000e+000 0.000000000000e+000
          7.761194029819e+001 0.000000000000e+000 0.000000000000e+000
          7.910447761162e+001 0.000000000000e+000 0.000000000000e+000
          8.059701492505e+001 0.000000000000e+000 0.000000000000e+000
          8.208955223848e+001 0.000000000000e+000 0.000000000000e+000
          8.358208955191e+001 0.000000000000e+000 0.000000000000e+000
          8.507462686534e+001 0.000000000000e+000 0.000000000000e+000
          8.656716417877e+001 0.000000000000e+000 0.000000000000e+000
          8.805970149220e+001 0.000000000000e+000 0.000000000000e+000
          8.955223880563e+001 0.000000000000e+000 0.000000000000e+000
          9.104477611907e+001 0.000000000000e+000 0.000000000000e+000
          9.253731343250e+001 0.000000000000e+000 0.000000000000e+000
          9.402985074593e+001 0.000000000000e+000 0.000000000000e+000
          9.552238805936e+001 0.000000000000e+000 0.000000000000e+000
          9.701492537279e+001 0.000000000000e+000 0.000000000000e+000
          9.850746268622e+001 0.000000000000e+000 0.000000000000e+000
          9.999999999965e+001 0.000000000000e+000 0.000000000000e+000
          1.014925373131e+002 0.000000000000e+000 0.000000000000e+000
          1.029850746265e+002 0.000000000000e+000 0.000000000000e+000
          1.044776119399e+002 0.000000000000e+000 0.000000000000e+000
          1.059701492534e+002 0.000000000000e+000 0.000000000000e+000
          1.074626865668e+002 0.000000000000e+000 0.000000000000e+000
          1.089552238802e+002 0.000000000000e+000 0.000000000000e+000
          1.104477611937e+002 0.000000000000e+000 0.000000000000e+000
          1.119402985071e+002 0.000000000000e+000 0.000000000000e+000
          1.134328358205e+002 0.000000000000e+000 0.000000000000e+000
          1.149253731340e+002 0.000000000000e+000 0.000000000000e+000
          1.164179104474e+002 0.000000000000e+000 0.000000000000e+000
          1.179104477608e+002 0.000000000000e+000 0.000000000000e+000
          1.194029850742e+002 0.000000000000e+000 0.000000000000e+000
          1.208955223877e+002 0.000000000000e+000 0.000000000000e+000
          1.223880597011e+002 0.000000000000e+000 0.000000000000e+000
          1.238805970145e+002 0.000000000000e+000 0.000000000000e+000
          1.253731343280e+002 0.000000000000e+000 0.000000000000e+000
          1.268656716414e+002 0.000000000000e+000 0.000000000000e+000
          1.283582089548e+002 0.000000000000e+000 0.000000000000e+000
          1.298507462683e+002 0.000000000000e+000 0.000000000000e+000
          1.313432835817e+002 0.000000000000e+000 0.000000000000e+000
          1.328358208952e+002 0.000000000000e+000 0.000000000000e+000
          1.343283582086e+002 0.000000000000e+000 0.000000000000e+000
          1.358208955220e+002 0.000000000000e+000 0.000000000000e+000
          1.373134328355e+002 0.000000000000e+000 0.000000000000e+000
          1.388059701489e+002 0.000000000000e+000 0.000000000000e+000
          1.402985074624e+002 0.000000000000e+000 0.000000000000e+000
          1.417910447758e+002 0.000000000000e+000 0.000000000000e+000
          1.432835820892e+002 0.000000000000e+000 0.000000000000e+000
          1.447761194027e+002 0.000000000000e+000 0.000000000000e+000
          1.462686567161e+002 0.000000000000e+000 0.000000000000e+000
          1.477611940296e+002 0.000000000000e+000 0.000000000000e+000
          1.492537313430e+002 0.000000000000e+000 0.000000000000e+000
          1.507462686564e+002 0.000000000000e+000 0.000000000000e+000
          1.522388059699e+002 0.000000000000e+000 0.000000000000e+000
          1.537313432833e+002 0.000000000000e+000 0.000000000000e+000
          1.552238805968e+002 0.000000000000e+000 0.000000000000e+000
          1.567164179102e+002 0.000000000000e+000 0.000000000000e+000
          1.582089552237e+002 0.000000000000e+000 0.000000000000e+000
          1.597014925371e+002 0.000000000000e+000 0.000000000000e+000
          1.611940298505e+002 0.000000000000e+000 0.000000000000e+000
          1.626865671640e+002 0.000000000000e+000 0.000000000000e+000
          1.641791044774e+002 0.000000000000e+000 0.000000000000e+000
          1.656716417909e+002 0.000000000000e+000 0.000000000000e+000
          1.671641791043e+002 0.000000000000e+000 0.000000000000e+000
          1.686567164177e+002 0.000000000000e+000 0.000000000000e+000
          1.701492537312e+002 0.000000000000e+000 0.000000000000e+000
          1.716417910446e+002 0.000000000000e+000 0.000000000000e+000
          1.731343283581e+002 0.000000000000e+000 0.000000000000e+000
          1.746268656715e+002 0.000000000000e+000 0.000000000000e+000
          1.761194029849e+002 0.000000000000e+000 0.000000000000e+000
          1.776119402984e+002 0.000000000000e+000 0.000000000000e+000
          1.791044776118e+002 0.000000000000e+000 0.000000000000e+000
          1.805970149253e+002 0.000000000000e+000 0.000000000000e+000
          1.820895522387e+002 0.000000000000e+000 0.000000000000e+000
          1.835820895521e+002 0.000000000000e+000 0.000000000000e+000
          1.850746268656e+002 0.000000000000e+000 0.000000000000e+000
          1.865671641790e+002 0.000000000000e+000 0.000000000000e+000
          1.880597014925e+002 0.000000000000e+000 0.000000000000e+000
          1.895522388059e+002 0.000000000000e+000 0.000000000000e+000
          1.910447761194e+002 0.000000000000e+000 0.000000000000e+000
          1.925373134328e+002 0.000000000000e+000 0.000000000000e+000
          1.940298507462e+002 0.000000000000e+000 0.000000000000e+000
          1.955223880597e+002 0.000000000000e+000 0.000000000000e+000
          1.970149253731e+002 0.000000000000e+000 0.000000000000e+000
          1.985074626866e+002 0.000000000000e+000 0.000000000000e+000
          2.000000000000e+002 1.428571428570e+000 0.000000000000e+000
          2.000000000000e+002 2.857142857140e+000 0.000000000000e+000
[...]
      <PointData Scalars="Capillary_Pressure">
        <DataArray type="Float64" Name="Capillary_Pressure" format="ascii">
          3.804582249776e+005 0.000000000000e+000 0.000000000000e+000 3.804614802296e+005 3.806956220582e+005 3.779043788154e+005 3.770394744575e+005 3.750785976434e+005 3.748052833685e+005 3.728836396179e+005 3.708343842128e+005 3.707614520789e+005 3.685715959381e+005 3.684144947157e+005 3.665490702648e+005 3.641503915702e+005 3.641906921259e+005 3.621633400185e+005 3.617712035731e+005 3.596522719400e+005 3.562218152487e+005 3.560483380047e+005 3.554986618232e+005 3.524701723443e+005 3.521647309259e+005 3.499730184318e+005 3.493764535989e+005 3.462151631342e+005 3.457495055667e+005 3.436854818198e+005 3.430881472213e+005 3.398705575037e+005 3.393812546529e+005 3.374131952873e+005 3.367229635699e+005 3.330945007274e+005 3.330766530044e+005 3.304743623962e+005 3.280813209796e+005 3.278581920519e+005 3.271189175876e+005 3.239427692560e+005 3.213137555484e+005 3.209745660296e+005 3.173329742893e+005 3.169089588056e+005 3.140792299023e+005 3.136696525038e+005 3.112537218297e+005 3.103959672038e+005 3.063128621308e+005 3.061892082431e+005 3.023376677229e+005 3.018512203486e+005 2.978837795159e+005 2.965922964532e+005 2.944372031794e+005 2.940501790947e+005 2.929852508176e+005 2.892105663991e+005 2.859976786781e+005 2.857199462219e+005 2.816997395963e+005 2.810387120035e+005 2.781728600334e+005 2.748249767853e+005 2.718465200296e+005 2.713165443286e+005 2.667586809672e+005 2.652378009029e+005 2.626591942325e+005 2.595457284599e+005 2.587917174660e+005 2.559555271996e+005 2.522494361493e+005 2.489456977559e+005 2.485012046610e+005 2.449985597806e+005 2.417933629032e+005 2.405810324970e+005 2.348560988418e+005 2.315055413265e+005 2.284432236924e+005 2.248557919167e+005 2.213737799319e+005 2.176756486130e+005 2.170427590561e+005 2.135803067949e+005 2.097402317571e+005 2.062276377246e+005 1.989840605728e+005 1.951594194598e+005 1.912762987569e+005 1.869276014014e+005 1.843509722933e+005 1.767372834225e+005 1.722329389216e+005 1.698195009839e+005 1.616012768296e+005 1.553484428953e+005 1.523273718713e+005 1.420581009919e+005 1.354655282165e+005 1.283070971386e+005 1.193894414405e+005 1.099844529979e+005 9.965708763463e+004 8.703605220986e+004 7.298076322007e+004 5.516221932025e+004 3.150301757054e+004 0.000000000000e+000 0.000000000000e+000 0.000000000000e+000 0.000000000000e+000 0.000000000000e+000 0.000000000000e+000 0.000000000000e+000 0.000000000000e+000 0.000000000000e+000 0.000000000000e+000 0.000000000000e+000 0.000000000000e+000 0.000000000000e+000 0.000000000000e+000 0.000000000000e+000 0.000000000000e+000 0.000000000000e+000 0.000000000000e+000 0.000000000000e+000 0.000000000000e+000 0.000000000000e+000 0.000000000000e+000 0.000000000000e+000 0.000000000000e+000 0.000000000000e+000 0.000000000000e+000 0.000000000000e+000 0.000000000000e+000 0.000000000000e+000 0.000000000000e+000 0.000000000000e+000 0.000000000000e+000 0.000000000000e+000 0.000000000000e+000 0.000000000000e+000 0.000000000000e+000 0.000000000000e+000 0.000000000000e+000 0.000000000000e+000 0.000000000000e+000 0.000000000000e+000 0.000000000000e+000 0.000000000000e+000 0.000000000000e+000 0.000000000000e+000 0.000000000000e+000 0.000000000000e+000 0.000000000000e+000 0.000000000000e+000 0.000000000000e+000 0.000000000000e+000 0.000000000000e+000 0.000000000000e+000 0.000000000000e+000 0.000000000000e+000 0.000000000000e+000 0.000000000000e+000 0.000000000000e+000 0.000000000000e+000 0.000000000000e+000 0.000000000000e+000 0.000000000000e+000 0.000000000000e+000 0.000000000000e+000 0.000000000000e+000 3.148232820449e+004 5.513367854805e+004 7.297060694195e+004 8.702153218122e+004 9.966082071176e+004 1.100076296350e+005 1.193780946946e+005 1.283054438437e+005 1.354582225556e+005 1.420470501224e+005 1.523255832801e+005 1.553398245745e+005 1.615812881095e+005 1.698117052302e+005 1.722272011721e+005 1.767487193857e+005 1.843389017849e+005 1.869244175894e+005 1.912646144097e+005 1.951387812518e+005 1.989821488867e+005 2.062240370229e+005 2.097462808602e+005 2.135853544951e+005 2.170376679370e+005 2.176836221943e+005 2.213791874719e+005 2.248747479580e+005 2.284378106697e+005 2.315154803112e+005 2.348262593149e+005 2.405713827986e+005 2.417833631256e+005 2.450116686252e+005 2.484855665351e+005 2.489349220051e+005 2.522401159412e+005 2.559414569578e+005 2.588068169190e+005 2.620982547278e+005 2.626626513539e+005 2.652254709093e+005 2.667292362111e+005 2.713295447990e+005 2.744701566265e+005 2.748251842728e+005 2.780985860139e+005 2.810535525718e+005 2.817120056397e+005 2.857100272840e+005 2.860067272769e+005 2.892456767036e+005 2.929835709333e+005 2.940512154318e+005 2.944592287130e+005 2.966038413132e+005 3.009572444687e+005 3.018695874711e+005 3.023345810307e+005 3.062043590124e+005 3.063592221924e+005 3.103810072892e+005 3.112209937436e+005 3.136621264560e+005 3.140670637645e+005 3.168839882229e+005 3.201570166880e+005 3.209751852830e+005 3.212881688385e+005 3.239465315914e+005 3.271120490832e+005 3.278652778344e+005 3.280694892923e+005 3.304709268322e+005 3.330806951985e+005 3.330898442087e+005 3.367230968524e+005 3.374085693533e+005 3.393792936217e+005 3.398728741598e+005 3.430860794731e+005 3.436842183554e+005 3.457489181849e+005 3.462074095416e+005 3.493806111313e+005 3.499663345155e+005 3.521625019420e+005 3.524753522672e+005 3.555007452121e+005 3.560459995324e+005 3.562269558657e+005 3.596418720579e+005 3.617671393696e+005 3.621606685772e+005 3.641995508156e+005 3.641394218176e+005 3.664846220255e+005 3.665402858372e+005 3.685824578866e+005 3.707663602267e+005 3.708168220624e+005 3.728949552940e+005 3.748103703659e+005 3.750905546029e+005 3.769992341350e+005 3.779092464410e+005 3.806945791688e+005 3.804628783950e+005 3.804607196641e+005 3.804627355089e+005 3.804622784909e+005 3.804574265879e+005 3.804603429336e+005 3.804614659148e+005 3.804578805967e+005 3.804594111880e+005 3.804640083691e+005 3.804594197057e+005 3.804599275790e+005 3.804597030434e+005 0.000000000000e+000 3.728720727653e+005 0.000000000000e+000 0.000000000000e+000 4.562676326540e+004 1.322764612907e+005 1.768248695798e+005 3.558499107933e+005 2.058008106126e+005 3.437040738988e+005 3.333227054419e+005 3.212272419051e+005 3.015396370481e+005 2.863094955390e+005 2.708330859660e+005 2.519180018418e+005 2.319099101498e+005 3.643773484229e+005 3.112384261092e+005 2.176635323151e+005 2.207381552853e+005 2.417704510488e+005 2.621335925282e+005 2.780767171095e+005 2.940577118780e+005 0.000000000000e+000 0.000000000000e+000 9.841412694316e+004 2.940501011823e+005 2.782844183812e+005 2.619605816506e+005 2.413867234240e+005 1.551651669466e+005 1.912400154525e+005 3.499807845235e+005 3.394445083351e+005 3.277981290292e+005 1.912166035406e+005 1.553256946687e+005 9.963889124811e+004 0.000000000000e+000 0.000000000000e+000 3.278851112716e+005 3.393836314134e+005 3.499604417211e+005 0.000000000000e+000 0.000000000000e+000 3.141739117694e+005 3.067017481367e+005 3.684022645195e+005 3.596399944104e+005 0.000000000000e+000 3.750837844778e+005 0.000000000000e+000 3.750952485262e+005 3.681669831216e+005 3.596821330977e+005 3.170262569638e+005 3.059684525238e+005 0.000000000000e+000 2.319157338032e+005 0.000000000000e+000 2.519129871004e+005 2.708262156877e+005 2.862945819040e+005 3.011776667725e+005 2.058410822846e+005 4.383547526729e+004 1.313773935804e+005 1.767999031503e+005 3.437323751831e+005 3.333798050587e+005 2.067921414816e+005 1.769453522889e+005 1.322024917999e+005 4.444221756234e+004 2.863110241346e+005 2.708161789097e+005 2.519368793320e+005 0.000000000000e+000 2.318795242347e+005 0.000000000000e+000 3.212890932070e+005 3.333320324515e+005 3.437263760617e+005 3.558553467835e+005 0.000000000000e+000 0.000000000000e+000 3.708181267268e+005 3.554951349426e+005 2.977219461287e+005 3.234805552046e+005 0.000000000000e+000 3.770576071313e+005 3.643639991232e+005 3.728348296116e+005 3.643843831087e+005 3.112245268545e+005 3.167101039539e+005 3.064281961712e+005 3.685814279928e+005 3.596229657029e+005 3.112167538647e+005 0.000000000000e+000 8.908376293387e+004 0.000000000000e+000 1.524336979434e+005 0.000000000000e+000 1.873596368932e+005 2.407283921203e+005 2.750451270646e+005 2.900856579517e+005 2.589392718874e+005 3.493935889105e+005 3.280248821606e+005 3.393754100500e+005 2.212677990578e+005 3.112591512652e+005 0.000000000000e+000 3.778952871373e+005 0.000000000000e+000 3.778930131484e+005 2.361979353368e+005 2.559613064741e+005 2.750390324756e+005 2.896227941354e+005 1.990689909825e+005 2.247563380198e+005 2.135908564754e+005 1.663312464518e+005 3.241252322917e+005 1.136277755872e+005 3.372161252702e+005 0.000000000000e+000 3.464836002251e+005 0.000000000000e+000 0.000000000000e+000 0.000000000000e+000 0.000000000000e+000 0.000000000000e+000 1.144549311324e+005 8.270800785042e+004 1.664632118766e+005 1.489760911501e+005 3.464270943131e+005 1.878292501274e+005 1.990836303464e+005 3.371751696983e+005 3.400310057378e+005 2.895854256197e+005 2.750280898023e+005 2.559345362635e+005 2.813512651043e+005 2.629859726609e+005 2.402124967844e+005 2.445980161964e+005 3.281251503418e+005 2.135841097997e+005 2.245269093250e+005 0.000000000000e+000 3.523252212257e+005 0.000000000000e+000 3.399655373419e+005 8.481320798708e+004 3.282084885967e+005 1.483497745411e+005 2.968443826281e+005 2.814877499413e+005 2.631226016263e+005 2.478256219603e+005 1.879992389073e+005 3.643571356642e+005 0.000000000000e+000 0.000000000000e+000 3.058234289810e+005 3.196235207276e+005 3.594702590933e+005 2.136878171811e+005 2.629884613937e+005 2.445177453856e+005 2.812914039677e+005 2.968287007726e+005 3.522986266300e+005 3.372540863884e+005 0.000000000000e+000 3.241325216405e+005 0.000000000000e+000 1.151486666294e+005 1.989716807131e+005 1.624628922244e+005 3.521663916045e+005 0.000000000000e+000 0.000000000000e+000 3.099331380649e+005 3.685739092386e+005 0.000000000000e+000 2.134571831918e+005 2.024616100428e+005 1.699235247288e+005 3.237698086112e+005 1.201669306505e+005 3.366732610556e+005 2.817533158980e+005 2.652509933374e+005 2.485762300637e+005 0.000000000000e+000 3.524706870590e+005 0.000000000000e+000 3.619418948673e+005 2.970512355941e+005 0.000000000000e+000 0.000000000000e+000 0.000000000000e+000 2.943433183699e+005 3.271782090324e+005 3.022757685414e+005 3.202667696323e+005 3.748231288710e+005 3.561834377575e+005 3.707282009760e+005 3.664437724355e+005 3.561807239996e+005 2.348358389641e+005 2.559518635390e+005 2.745003482475e+005 2.892503596106e+005 0.000000000000e+000 3.462158218047e+005 0.000000000000e+000 2.249283595409e+005 1.843767638899e+005 0.000000000000e+000 1.419437208757e+005 0.000000000000e+000 7.292986430075e+004 2.354150460355e+005 2.559832884989e+005 2.744552758537e+005 2.892090694009e+005 3.461426647833e+005 3.304378233301e+005 3.430993320570e+005 3.430948251658e+005 7.206001581361e+004 3.300029933207e+005 1.419637113874e+005 1.842838442792e+005 2.248993950393e+005 0.000000000000e+000 0.000000000000e+000 3.778948215079e+005 3.779046823812e+005 0.000000000000e+000 3.743728974135e+005 0.000000000000e+000 0.000000000000e+000 3.729288208243e+005 0.000000000000e+000 3.707368788574e+005 3.743804444668e+005 3.204620878349e+005 3.016911203840e+005 3.556253527194e+005 3.706464588527e+005 3.210298224000e+005 3.620483578333e+005 3.621935320014e+005 3.017719879633e+005 3.663312826413e+005 3.166375656775e+005 3.100511179166e+005 3.664842281476e+005 3.369956345700e+005 1.985854841741e+005 1.656839362430e+005 1.173112614295e+005 0.000000000000e+000 0.000000000000e+000 2.138545775696e+005 2.970788220749e+005 2.811322338262e+005 2.657710100738e+005 2.482389379931e+005 3.140391115829e+005 3.621274402833e+005 3.069087018952e+005 3.135781035557e+005 0.000000000000e+000 0.000000000000e+000 3.520276637735e+005 3.266258068558e+005 3.729565165657e+005 3.750411065930e+005 0.000000000000e+000 3.663847072962e+005 2.319568100724e+005 2.548813529640e+005 2.713599460870e+005 2.860202889208e+005 2.062572196961e+005 2.065747080218e+005 2.283321742634e+005 1.721707469795e+005 1.297017802472e+005 3.213191131408e+005 2.982539363916e+004 3.334600748219e+005 0.000000000000e+000 3.457727576459e+005 0.000000000000e+000 0.000000000000e+000 2.941128635545e+004 1.296404887693e+005 1.733425439624e+005 3.457908700237e+005 3.334662868992e+005 2.860010747617e+005 2.713801913210e+005 2.549053140463e+005 0.000000000000e+000 3.554846910126e+005 2.978145822899e+005 0.000000000000e+000 0.000000000000e+000 0.000000000000e+000 3.526510473256e+005 3.562914059176e+005 3.707240970294e+005 3.103263012900e+005 0.000000000000e+000 0.000000000000e+000 1.048357572583e+005 1.587925585787e+005 1.954690886176e+005 3.500274034829e+005 3.373225621805e+005 3.274534037803e+005 2.417636548115e+005 2.782714482313e+005 2.944397223083e+005 2.626750710753e+005 2.173987329018e+005 0.000000000000e+000 0.000000000000e+000 0.000000000000e+000 0.000000000000e+000 1.327490241944e+005 1.766939268008e+005 3.334107945280e+005 2.861669235873e+005 2.705387672089e+005 2.517304499635e+005 3.772818359691e+005 3.137437658199e+005 2.065569567953e+005 2.061754709729e+005 3.011905368219e+005 0.000000000000e+000 3.805403982702e+005 3.237816700650e+005 2.967693104666e+005 1.912941976374e+005 1.554008946164e+005 9.968986195502e+004 0.000000000000e+000 0.000000000000e+000 3.278442021988e+005 3.393606324427e+005 3.499703782157e+005 2.620939161936e+005 2.417913977167e+005 2.940530763756e+005 2.781633844519e+005 0.000000000000e+000 0.000000000000e+000 2.781344229096e+005 2.620732119166e+005 9.964328676675e+004 2.417958506819e+005 1.553529022494e+005 1.912230840850e+005 3.393797910683e+005 2.176315971934e+005 2.176899932178e+005 3.619168944433e+005 3.174439980362e+005 3.641551996270e+005 2.947686331253e+005 3.110680517684e+005 0.000000000000e+000 0.000000000000e+000 3.061882376754e+005 3.027047056038e+005 3.107215109246e+005 2.019886344079e+005 2.324468824726e+005 2.285048780241e+005 2.092550378668e+005 2.482398865062e+005 2.663629264659e+005 2.853332434033e+005 1.795370609500e+005 3.435000260512e+005 3.327616289920e+005 0.000000000000e+000 6.350577255652e+004 1.386306789456e+005 0.000000000000e+000 3.434959814002e+005 6.356984870866e+004 3.327543011608e+005 2.853214765912e+005 2.663352193112e+005 2.486218834443e+005 1.386377554962e+005 1.795516288527e+005 3.773740019418e+005 3.705993390052e+005 0.000000000000e+000 3.773690277138e+005 2.318870032117e+005 2.319523913012e+005 3.437348111841e+005 3.437464837835e+005 4.333457666522e+004 4.384861663501e+004 0.000000000000e+000 3.662831331355e+005 3.728665578503e+005 3.554722111967e+005 3.644000231353e+005 0.000000000000e+000 3.805387900225e+005 0.000000000000e+000 3.805384033082e+005 3.684167068195e+005 0.000000000000e+000 0.000000000000e+000 1.769746143397e+005 1.322240040940e+005 3.333403951692e+005 2.517972609369e+005 2.863414740019e+005 2.708698593842e+005 0.000000000000e+000 3.597443842456e+005 3.597019550252e+005 3.707364474910e+005 3.021098825744e+005 3.206100959088e+005 3.707629391552e+005 3.560407307970e+005 3.498752456553e+005 3.167643655294e+005 3.592077515836e+005 0.000000000000e+000 0.000000000000e+000 3.196728614044e+005 3.024748881659e+005 0.000000000000e+000 3.214368560637e+005 3.023343123154e+005 3.062780232758e+005 0.000000000000e+000 3.523226030379e+005 0.000000000000e+000 2.817426366582e+005 2.652526529638e+005 2.485669788987e+005 2.102328617863e+005 3.371946170544e+005 1.136942764964e+005 3.265190651907e+005 1.663880997213e+005 2.025385962114e+005 0.000000000000e+000 3.621915553072e+005 3.069904715900e+005 3.135025609701e+005 3.213039782507e+005 3.664998082227e+005 0.000000000000e+000 3.805360839939e+005 0.000000000000e+000 3.806819392813e+005 3.729943294403e+005 3.558373592386e+005 3.113248350819e+005 3.167607377160e+005 0.000000000000e+000 3.280632755710e+005 2.936866101050e+005 3.597160271409e+005 3.020501055204e+005 3.643000755410e+005 1.879122667088e+005 1.478188685058e+005 8.367126483558e+004 3.282392571548e+005 3.400411809805e+005 7.107550615599e+004 0.000000000000e+000 1.418579801585e+005 1.603033028130e+003 1.841713904253e+005 3.431357989252e+005 3.300235108620e+005 3.456407971076e+005 2.891712512346e+005 2.558981139333e+005 2.717679135885e+005 2.356354433893e+005 0.000000000000e+000 0.000000000000e+000 3.464418590722e+005 2.246147674967e+005 2.896965943885e+005 2.751163446490e+005 2.560290207833e+005 2.402346009953e+005 2.249634619116e+005 2.176649502434e+005 2.417846073735e+005 2.781822049084e+005 2.621426383193e+005 2.940547181139e+005 0.000000000000e+000 0.000000000000e+000 9.960397446649e+004 1.912254240071e+005 1.553084074951e+005 3.499636210255e+005 3.393741034398e+005 3.278616238664e+005 3.206489154827e+005 3.561838446383e+005 0.000000000000e+000 3.729903643748e+005 2.251243311151e+005 2.355028342430e+005 2.557983603984e+005 2.742321679179e+005 2.890703918996e+005 7.235676896908e+003 0.000000000000e+000 3.455485723053e+005 6.929800671231e+004 1.417279730122e+005 1.840255701537e+005 3.433204869189e+005 3.300821981731e+005 3.108389262731e+005 0.000000000000e+000 3.137860025675e+005 0.000000000000e+000 2.208647046466e+005 2.175831145166e+005 2.416027774953e+005 2.617719517256e+005 2.779211689101e+005 2.937668497492e+005 0.000000000000e+000 0.000000000000e+000 1.010271299330e+005 1.592226782757e+005 1.908127919851e+005 3.392844101943e+005 1.913446586365e+005 2.780570882857e+005 2.596490198562e+005 2.416414263290e+005 1.554479840330e+005 9.973008928728e+004 3.278111508350e+005 0.000000000000e+000 3.393407502869e+005 0.000000000000e+000 3.499682828115e+005 3.643720743069e+005 0.000000000000e+000 3.495981581793e+005 0.000000000000e+000 2.750598547754e+005 2.407836238780e+005 2.587682766301e+005 2.900889632525e+005 3.392844856175e+005 9.021722667466e+004 3.277143426457e+005 1.511651770249e+005 1.875463697444e+005 2.210510506078e+005 3.729043702292e+005 0.000000000000e+000 3.805405543471e+005 0.000000000000e+000 0.000000000000e+000 0.000000000000e+000 3.139401860030e+005 3.071324826136e+005 3.598524829737e+005 3.499107444270e+005 0.000000000000e+000 3.725059468575e+005 0.000000000000e+000 0.000000000000e+000 3.559753168994e+005 2.025948854740e+005 1.700471533565e+005 3.238810537741e+005 1.237901781223e+005 3.366302361557e+005 2.484760114328e+005 2.652614251148e+005 2.816919543059e+005 2.102225374148e+005 0.000000000000e+000 3.525501859605e+005 0.000000000000e+000 3.213151789053e+005 3.012539758519e+005 3.141008797735e+005 3.685423571846e+005 3.707264990438e+005 0.000000000000e+000 3.770838406444e+005 0.000000000000e+000 3.770858246283e+005 2.936456737000e+005 3.280485210202e+005 2.967666518186e+005 3.664259114809e+005 0.000000000000e+000 3.772835819923e+005 3.170843056282e+005 3.066414051287e+005 3.142003293596e+005 3.598721997981e+005 3.684445414227e+005 3.642058143410e+005 3.242307661197e+005 3.684485535064e+005 3.622244175851e+005 3.140801110062e+005 3.708336722028e+005 3.686274533145e+005 3.108287632589e+005 3.200773676755e+005 3.064739756487e+005 3.168273880800e+005 0.000000000000e+000 3.748161857893e+005 3.524336340637e+005 2.173552224605e+005 2.093241543798e+005 0.000000000000e+000 0.000000000000e+000 0.000000000000e+000 0.000000000000e+000 1.202580532383e+005 1.699958949157e+005 3.366396743343e+005 1.948372222479e+005 2.019467636304e+005 2.944128997975e+005 2.968914893442e+005 2.809491167615e+005 2.852816330811e+005 2.662666820087e+005 2.621781335541e+005 2.450156742185e+005 2.489831063344e+005 3.750781727844e+005 0.000000000000e+000 0.000000000000e+000 0.000000000000e+000 0.000000000000e+000 3.774008233856e+005 0.000000000000e+000 2.360209675396e+005 2.558737747689e+005 2.749485564149e+005 2.889058854387e+005 2.247687931533e+005 2.131423505924e+005 1.992041919348e+005 1.665398508499e+005 3.240248177830e+005 1.145098783513e+005 3.371363463651e+005 0.000000000000e+000 3.464106521758e+005 0.000000000000e+000 0.000000000000e+000 0.000000000000e+000 0.000000000000e+000 1.145320493367e+005 1.66538