<?xml version="1.0"?>
<VTKFile type="UnstructuredGrid" version="0.1" byte_order="LittleEndian">
  <UnstructuredGrid>
    <Piece NumberOfPoints="2604" NumberOfCells="4910">
      <Points>
        <DataArray type="Float64" NumberOfComponents="3" format="ascii">
          0.000000000000e+000 0.000000000000e+000 0.000000000000e+000
          2.000000000000e+002 0.000000000000e+000 0.000000000000e+000
          2.000000000000e+002 2.000000000000e+001 0.000000000000e+000
          0.000000000000e+000 2.000000000000e+001 0.000000000000e+000
          1.492537313427e+000 0.000000000000e+000 0.000000000000e+000
          2.985074626854e+000 0.000000000000e+000 0.000000000000e+000
          4.477611940281e+000 0.000000000000e+000 0.000000000000e+000
          5.970149253708e+000 0.000000000000e+000 0.000000000000e+000
          7.462686567135e+000 0.000000000000e+000 0.000000000000e+000
          8.955223880561e+000 0.000000000000e+000 0.000000000000e+000
          1.044776119399e+001 0.000000000000e+000 0.000000000000e+000
          1.194029850741e+001 0.000000000000e+000 0.000000000000e+000
          1.343283582084e+001 0.000000000000e+000 0.000000000000e+000
          1.492537313427e+001 0.000000000000e+000 0.000000000000e+000
          1.641791044770e+001 0.000000000000e+000 0.000000000000e+000
          1.791044776112e+001 0.000000000000e+000 0.000000000000e+000
          1.940298507455e+001 0.000000000000e+000 0.000000000000e+000
          2.089552238798e+001 0.000000000000e+000 0.000000000000e+000
          2.238805970141e+001 0.000000000000e+000 0.000000000000e+000
          2.388059701484e+001 0.000000000000e+000 0.000000000000e+000
          2.537313432826e+001 0.000000000000e+000 0.000000000000e+000
          2.686567164169e+001 0.000000000000e+000 0.000000000000e+000
          2.835820895511e+001 0.000000000000e+000 0.000000000000e+000
          2.985074626854e+001 0.000000000000e+000 0.000000000000e+000
          3.134328358196e+001 0.000000000000e+000 0.000000000000e+000
          3.283582089539e+001 0.000000000000e+000 0.000000000000e+000
          3.432835820881e+001 0.000000000000e+000 0.000000000000e+000
          3.582089552224e+001 0.000000000000e+000 0.000000000000e+000
          3.731343283566e+001 0.000000000000e+000 0.000000000000e+000
          3.880597014909e+001 0.000000000000e+000 0.000000000000e+000
          4.029850746251e+001 0.000000000000e+000 0.000000000000e+000
          4.179104477594e+001 0.000000000000e+000 0.000000000000e+000
          4.328358208936e+001 0.000000000000e+000 0.000000000000e+000
          4.477611940279e+001 0.000000000000e+000 0.000000000000e+000
          4.626865671621e+001 0.000000000000e+000 0.000000000000e+000
          4.776119402964e+001 0.000000000000e+000 0.000000000000e+000
          4.925373134306e+001 0.000000000000e+000 0.000000000000e+000
          5.074626865649e+001 0.000000000000e+000 0.000000000000e+000
          5.223880596991e+001 0.000000000000e+000 0.000000000000e+000
          5.373134328334e+001 0.000000000000e+000 0.000000000000e+000
          5.522388059676e+001 0.000000000000e+000 0.000000000000e+000
          5.671641791019e+001 0.000000000000e+000 0.000000000000e+000
          5.820895522361e+001 0.000000000000e+000 0.000000000000e+000
          5.970149253704e+001 0.000000000000e+000 0.000000000000e+000
          6.119402985046e+001 0.000000000000e+000 0.000000000000e+000
          6.268656716389e+001 0.000000000000e+000 0.000000000000e+000
          6.417910447732e+001 0.000000000000e+000 0.000000000000e+000
          6.567164179075e+001 0.000000000000e+000 0.000000000000e+000
          6.716417910418e+001 0.000000000000e+000 0.000000000000e+000
          6.865671641761e+001 0.000000000000e+000 0.000000000000e+000
          7.014925373104e+001 0.000000000000e+000 0.000000000000e+000
          7.164179104447e+001 0.000000000000e+000 0.000000000000e+000
          7.313432835790e+001 0.000000000000e+000 0.000000000000e+000
          7.462686567133e+001 0.000000000000e+000 0.000000000000e+000
          7.611940298476e+001 0.000000000000e+000 0.000000000000e+000
          7.761194029819e+001 0.000000000000e+000 0.000000000000e+000
          7.910447761162e+001 0.000000000000e+000 0.000000000000e+000
          8.059701492505e+001 0.000000000000e+000 0.000000000000e+000
          8.208955223848e+001 0.000000000000e+000 0.000000000000e+000
          8.358208955191e+001 0.000000000000e+000 0.000000000000e+000
          8.507462686534e+001 0.000000000000e+000 0.000000000000e+000
          8.656716417877e+001 0.000000000000e+000 0.000000000000e+000
          8.805970149220e+001 0.000000000000e+000 0.000000000000e+000
          8.955223880563e+001 0.000000000000e+000 0.000000000000e+000
          9.104477611907e+001 0.000000000000e+000 0.000000000000e+000
          9.253731343250e+001 0.000000000000e+000 0.000000000000e+000
          9.402985074593e+001 0.000000000000e+000 0.000000000000e+000
          9.552238805936e+001 0.000000000000e+000 0.000000000000e+000
          9.701492537279e+001 0.000000000000e+000 0.000000000000e+000
          9.850746268622e+001 0.000000000000e+000 0.000000000000e+000
          9.999999999965e+001 0.000000000000e+000 0.000000000000e+000
          1.014925373131e+002 0.000000000000e+000 0.000000000000e+000
          1.029850746265e+002 0.000000000000e+000 0.000000000000e+000
          1.044776119399e+002 0.000000000000e+000 0.000000000000e+000
          1.059701492534e+002 0.000000000000e+000 0.000000000000e+000
          1.074626865668e+002 0.000000000000e+000 0.000000000000e+000
          1.089552238802e+002 0.000000000000e+000 0.000000000000e+000
          1.104477611937e+002 0.000000000000e+000 0.000000000000e+000
          1.119402985071e+002 0.000000000000e+000 0.000000000000e+000
          1.134328358205e+002 0.000000000000e+000 0.000000000000e+000
          1.149253731340e+002 0.000000000000e+000 0.000000000000e+000
          1.164179104474e+002 0.000000000000e+000 0.000000000000e+000
          1.179104477608e+002 0.000000000000e+000 0.000000000000e+000
          1.194029850742e+002 0.000000000000e+000 0.000000000000e+000
          1.208955223877e+002 0.000000000000e+000 0.000000000000e+000
          1.223880597011e+002 0.000000000000e+000 0.000000000000e+000
          1.238805970145e+002 0.000000000000e+000 0.000000000000e+000
          1.253731343280e+002 0.000000000000e+000 0.000000000000e+000
          1.268656716414e+002 0.000000000000e+000 0.000000000000e+000
          1.283582089548e+002 0.000000000000e+000 0.000000000000e+000
          1.298507462683e+002 0.000000000000e+000 0.000000000000e+000
          1.313432835817e+002 0.000000000000e+000 0.000000000000e+000
          1.328358208952e+002 0.000000000000e+000 0.000000000000e+000
          1.343283582086e+002 0.000000000000e+000 0.000000000000e+000
          1.358208955220e+002 0.000000000000e+000 0.000000000000e+000
          1.373134328355e+002 0.000000000000e+000 0.000000000000e+000
          1.388059701489e+002 0.000000000000e+000 0.000000000000e+000
          1.402985074624e+002 0.000000000000e+000 0.000000000000e+000
          1.417910447758e+002 0.000000000000e+000 0.000000000000e+000
          1.432835820892e+002 0.000000000000e+000 0.000000000000e+000
          1.447761194027e+002 0.000000000000e+000 0.000000000000e+000
          1.462686567161e+002 0.000000000000e+000 0.000000000000e+000
          1.477611940296e+002 0.000000000000e+000 0.000000000000e+000
          1.492537313430e+002 0.000000000000e+000 0.000000000000e+000
          1.507462686564e+002 0.000000000000e+000 0.000000000000e+000
          1.522388059699e+002 0.000000000000e+000 0.000000000000e+000
          1.537313432833e+002 0.000000000000e+000 0.000000000000e+000
          1.552238805968e+002 0.000000000000e+000 0.000000000000e+000
          1.567164179102e+002 0.000000000000e+000 0.000000000000e+000
          1.582089552237e+002 0.000000000000e+000 0.000000000000e+000
          1.597014925371e+002 0.000000000000e+000 0.000000000000e+000
          1.611940298505e+002 0.000000000000e+000 0.000000000000e+000
          1.626865671640e+002 0.000000000000e+000 0.000000000000e+000
          1.641791044774e+002 0.000000000000e+000 0.000000000000e+000
          1.656716417909e+002 0.000000000000e+000 0.000000000000e+000
          1.671641791043e+002 0.000000000000e+000 0.000000000000e+000
          1.686567164177e+002 0.000000000000e+000 0.000000000000e+000
          1.701492537312e+002 0.000000000000e+000 0.000000000000e+000
          1.716417910446e+002 0.000000000000e+000 0.000000000000e+000
          1.731343283581e+002 0.000000000000e+000 0.000000000000e+000
          1.746268656715e+002 0.000000000000e+000 0.000000000000e+000
          1.761194029849e+002 0.000000000000e+000 0.000000000000e+000
          1.776119402984e+002 0.000000000000e+000 0.000000000000e+000
          1.791044776118e+002 0.000000000000e+000 0.000000000000e+000
          1.805970149253e+002 0.000000000000e+000 0.000000000000e+000
          1.820895522387e+002 0.000000000000e+000 0.000000000000e+000
          1.835820895521e+002 0.000000000000e+000 0.000000000000e+000
          1.850746268656e+002 0.000000000000e+000 0.000000000000e+000
          1.865671641790e+002 0.000000000000e+000 0.000000000000e+000
          1.880597014925e+002 0.000000000000e+000 0.000000000000e+000
          1.895522388059e+002 0.000000000000e+000 0.000000000000e+000
          1.910447761194e+002 0.000000000000e+000 0.000000000000e+000
          1.925373134328e+002 0.000000000000e+000 0.000000000000e+000
          1.940298507462e+002 0.000000000000e+000 0.000000000000e+000
          1.955223880597e+002 0.000000000000e+000 0.000000000000e+000
          1.970149253731e+002 0.000000000000e+000 0.000000000000e+000
          1.985074626866e+002 0.000000000000e+000 0.000000000000e+000
          2.000000000000e+002 1.428571428570e+000 0.000000000000e+000
          2.000000000000e+002 2.857142857140e+000 0.000000000000e+000
[...]
      <PointData Scalars="Capillary_Pressure">
        <DataArray type="Float64" Name="Capillary_Pressure" format="ascii">
          3.186146934089e+005 0.000000000000e+000 0.000000000000e+000 3.186203531454e+005 3.189507059566e+005 3.153342981310e+005 3.143398151391e+005 3.118844543249e+005 3.115815258553e+005 3.091870060835e+005 3.066888168459e+005 3.066365967160e+005 3.040043853438e+005 3.040018900683e+005 3.016908351254e+005 2.987721962657e+005 2.990090981389e+005 2.966304971203e+005 2.963618385795e+005 2.938134436979e+005 2.895659582910e+005 2.896707475989e+005 2.892477843962e+005 2.855586217402e+005 2.855103222675e+005 2.829532213113e+005 2.825515372796e+005 2.787201112392e+005 2.785404587007e+005 2.761898428197e+005 2.759033083842e+005 2.719487590656e+005 2.718353172251e+005 2.696578703438e+005 2.693500990685e+005 2.648104896332e+005 2.654655522120e+005 2.625308445203e+005 2.597471669821e+005 2.601606799396e+005 2.598526515645e+005 2.560644106397e+005 2.532537110052e+005 2.533928174395e+005 2.489888837156e+005 2.492210520512e+005 2.459986776467e+005 2.463096939096e+005 2.437184083904e+005 2.432825108964e+005 2.385420387595e+005 2.391620901928e+005 2.345011430279e+005 2.347993621265e+005 2.300491079462e+005 2.291583477057e+005 2.270726942298e+005 2.275448462950e+005 2.270681313399e+005 2.227303191709e+005 2.189676220223e+005 2.197887491867e+005 2.150808580163e+005 2.152030064553e+005 2.121892279304e+005 2.084069825401e+005 2.052784122042e+005 2.057470714275e+005 2.001230702675e+005 1.992637472284e+005 1.966473103749e+005 1.932406363386e+005 1.936524226736e+005 1.906677118676e+005 1.864411292567e+005 1.826980596230e+005 1.836364803661e+005 1.797208276095e+005 1.762989296829e+005 1.760742231581e+005 1.683754799455e+005 1.648409603118e+005 1.615064312159e+005 1.573745347697e+005 1.533344499011e+005 1.488676564549e+005 1.498149563930e+005 1.457916829156e+005 1.411091356009e+005 1.368970973380e+005 1.256679175736e+005 1.206429570712e+005 1.153568969382e+005 1.090368163782e+005 1.062530829986e+005 9.191618059918e+004 8.408113477383e+004 8.142587338168e+004 6.206247936439e+004 4.546216075072e+004 3.962036964965e+004 1.469829667284e+001 0.000000000000e+000 0.000000000000e+000 0.000000000000e+000 0.000000000000e+000 0.000000000000e+000 0.000000000000e+000 0.000000000000e+000 0.000000000000e+000 0.000000000000e+000 0.000000000000e+000 0.000000000000e+000 0.000000000000e+000 0.000000000000e+000 0.000000000000e+000 0.000000000000e+000 0.000000000000e+000 0.000000000000e+000 0.000000000000e+000 0.000000000000e+000 0.000000000000e+000 0.000000000000e+000 0.000000000000e+000 0.000000000000e+000 0.000000000000e+000 0.000000000000e+000 0.000000000000e+000 0.000000000000e+000 0.000000000000e+000 0.000000000000e+000 0.000000000000e+000 0.000000000000e+000 0.000000000000e+000 0.000000000000e+000 0.000000000000e+000 0.000000000000e+000 0.000000000000e+000 0.000000000000e+000 0.000000000000e+000 0.000000000000e+000 0.000000000000e+000 0.000000000000e+000 0.000000000000e+000 0.000000000000e+000 0.000000000000e+000 0.000000000000e+000 0.000000000000e+000 0.000000000000e+000 0.000000000000e+000 0.000000000000e+000 0.000000000000e+000 0.000000000000e+000 0.000000000000e+000 0.000000000000e+000 0.000000000000e+000 0.000000000000e+000 0.000000000000e+000 0.000000000000e+000 0.000000000000e+000 0.000000000000e+000 0.000000000000e+000 0.000000000000e+000 0.000000000000e+000 0.000000000000e+000 0.000000000000e+000 0.000000000000e+000 0.000000000000e+000 0.000000000000e+000 0.000000000000e+000 0.000000000000e+000 0.000000000000e+000 0.000000000000e+000 0.000000000000e+000 0.000000000000e+000 0.000000000000e+000 0.000000000000e+000 0.000000000000e+000 0.000000000000e+000 0.000000000000e+000 0.000000000000e+000 0.000000000000e+000 0.000000000000e+000 0.000000000000e+000 0.000000000000e+000 1.488010133221e+001 3.964963663656e+004 4.546681269238e+004 6.206745946285e+004 8.139263975531e+004 8.408190642928e+004 9.190373807737e+004 1.062294084603e+005 1.090101530669e+005 1.153309879106e+005 1.205974548187e+005 1.256084533482e+005 1.369564021468e+005 1.410702602946e+005 1.457011451410e+005 1.497860388065e+005 1.488619109219e+005 1.532968988602e+005 1.573673761380e+005 1.615605667351e+005 1.648274725263e+005 1.683656666167e+005 1.760443950834e+005 1.762902806306e+005 1.797734295092e+005 1.836455231693e+005 1.826708079516e+005 1.864319069543e+005 1.906631922896e+005 1.936916187805e+005 1.972369983167e+005 1.966058184343e+005 1.992695745837e+005 2.000642365292e+005 2.057631278269e+005 2.091722756472e+005 2.085203590367e+005 2.120538073748e+005 2.152045229379e+005 2.150811756016e+005 2.197951221924e+005 2.189850371144e+005 2.228040744905e+005 2.270650949928e+005 2.275588719564e+005 2.271282722239e+005 2.291885097374e+005 2.345264521317e+005 2.348171153319e+005 2.344746979486e+005 2.391731636970e+005 2.385220192967e+005 2.432802667447e+005 2.436967544495e+005 2.462629853635e+005 2.459012174234e+005 2.491653489981e+005 2.530554964959e+005 2.533822287151e+005 2.531239930716e+005 2.560816817085e+005 2.597957942601e+005 2.601759280671e+005 2.597398541122e+005 2.624622306056e+005 2.654812892506e+005 2.648096606495e+005 2.693646958214e+005 2.696383459399e+005 2.718261362280e+005 2.719375752964e+005 2.759173105856e+005 2.761851448419e+005 2.785430364458e+005 2.786915717965e+005 2.825750891643e+005 2.829351380273e+005 2.854875122265e+005 2.855677702034e+005 2.892493468899e+005 2.896454173250e+005 2.895515252288e+005 2.938116223659e+005 2.963487676884e+005 2.966080230120e+005 2.990083109985e+005 2.988875422843e+005 3.015045766644e+005 3.015135989598e+005 3.039410538324e+005 3.066996529564e+005 3.065904841020e+005 3.092313787879e+005 3.115722909495e+005 3.118780330497e+005 3.142953510775e+005 3.153589837751e+005 3.189422160779e+005 3.186199929954e+005 3.186210453037e+005 3.186135012943e+005 3.186183157107e+005 3.186197334195e+005 3.186174701563e+005 3.186152657292e+005 3.186107063675e+005 3.186137253901e+005 3.186169811063e+005 3.186105653072e+005 3.186176458107e+005 3.186168951023e+005 0.000000000000e+000 3.092265157181e+005 0.000000000000e+000 0.000000000000e+000 0.000000000000e+000 0.000000000000e+000 9.348848078947e+004 2.895537677053e+005 1.350623442655e+005 2.759938142230e+005 2.655481359622e+005 2.534318242400e+005 2.347742003786e+005 2.201061425374e+005 2.057038811513e+005 1.867707038870e+005 1.662460330536e+005 2.991518836304e+005 2.436792911718e+005 1.488999770157e+005 1.540307835020e+005 1.762768773149e+005 1.973395079645e+005 2.120235329858e+005 2.275574819721e+005 0.000000000000e+000 0.000000000000e+000 0.000000000000e+000 2.275558720558e+005 2.121192544731e+005 1.971558699855e+005 1.752979672195e+005 4.533895635622e+004 1.152757810133e+005 2.829433506687e+005 2.718493204102e+005 2.601385357583e+005 1.153987188457e+005 4.542802055963e+004 0.000000000000e+000 0.000000000000e+000 0.000000000000e+000 2.602107844790e+005 2.718339062317e+005 2.829479946369e+005 0.000000000000e+000 0.000000000000e+000 2.459420531907e+005 2.392022998586e+005 3.039079999348e+005 2.937199200248e+005 0.000000000000e+000 3.118521005007e+005 0.000000000000e+000 3.118852806972e+005 3.035770499736e+005 2.938107904532e+005 2.492263416202e+005 2.389768397863e+005 0.000000000000e+000 1.662814283909e+005 0.000000000000e+000 1.867031894164e+005 2.057268343554e+005 2.201336687021e+005 2.345314035315e+005 1.350703799415e+005 0.000000000000e+000 0.000000000000e+000 9.399346980266e+004 2.759892594101e+005 2.655297834787e+005 1.368111485354e+005 9.392347224519e+004 0.000000000000e+000 0.000000000000e+000 2.201136920604e+005 2.057180096171e+005 1.867161065399e+005 0.000000000000e+000 1.662069625189e+005 0.000000000000e+000 2.534476319108e+005 2.654921046987e+005 2.759661289520e+005 2.895702671863e+005 0.000000000000e+000 0.000000000000e+000 3.066075747208e+005 2.892755531469e+005 2.299948638264e+005 2.559520215523e+005 0.000000000000e+000 3.143767578060e+005 2.991505337575e+005 3.091859930301e+005 2.991785331920e+005 2.430481622143e+005 2.493581346560e+005 2.391962667128e+005 3.040566861433e+005 2.937747263565e+005 2.436950985976e+005 0.000000000000e+000 0.000000000000e+000 0.000000000000e+000 3.920601098827e+004 0.000000000000e+000 1.095472600586e+005 1.760037252625e+005 2.087387632984e+005 2.226533923314e+005 1.937821922470e+005 2.825732468843e+005 2.597230118978e+005 2.713561803885e+005 1.533308847962e+005 2.437077330582e+005 0.000000000000e+000 3.153281637641e+005 0.000000000000e+000 3.153393998634e+005 1.695761007681e+005 1.895926804253e+005 2.092075982347e+005 2.226014756509e+005 1.273445148340e+005 1.582679070914e+005 1.444284077574e+005 7.445822369410e+004 2.558785120498e+005 0.000000000000e+000 2.696125567975e+005 0.000000000000e+000 2.787975140264e+005 0.000000000000e+000 0.000000000000e+000 0.000000000000e+000 0.000000000000e+000 0.000000000000e+000 0.000000000000e+000 0.000000000000e+000 7.447032748991e+004 2.719384991946e+004 2.787996654997e+005 1.117844446686e+005 1.273904970160e+005 2.696040660124e+005 2.719926657810e+005 2.224777642058e+005 2.092182136334e+005 1.897187007599e+005 2.152786817203e+005 1.966667380342e+005 1.760505400014e+005 1.784105160039e+005 2.597737867249e+005 1.445336649511e+005 1.582284836263e+005 0.000000000000e+000 2.855810461787e+005 0.000000000000e+000 2.719660928680e+005 0.000000000000e+000 2.597814404721e+005 2.370838967928e+004 2.299978080037e+005 2.153284040583e+005 1.966731128339e+005 1.834571363991e+005 1.118119862759e+005 2.990874049957e+005 0.000000000000e+000 0.000000000000e+000 2.389541219077e+005 2.527295200311e+005 2.937336751440e+005 1.444866300416e+005 1.966482881374e+005 1.784053285508e+005 2.152319827948e+005 2.299962658129e+005 2.855617475690e+005 2.695809027966e+005 0.000000000000e+000 2.558273144178e+005 0.000000000000e+000 0.000000000000e+000 1.273285619907e+005 6.347748104171e+004 2.854707328869e+005 0.000000000000e+000 0.000000000000e+000 2.432343862083e+005 3.040047418734e+005 0.000000000000e+000 1.456824354693e+005 1.319915809434e+005 8.142443439715e+004 2.560000614073e+005 0.000000000000e+000 2.692884271725e+005 2.150441496692e+005 1.991278692532e+005 1.836693030132e+005 0.000000000000e+000 2.855541119639e+005 0.000000000000e+000 2.964427645989e+005 2.299007064396e+005 0.000000000000e+000 0.000000000000e+000 0.000000000000e+000 2.270778441524e+005 2.596972199025e+005 2.345412755771e+005 2.530130007201e+005 3.116178796070e+005 2.895730465635e+005 3.066376779146e+005 3.014925483485e+005 2.895312383327e+005 1.683399137553e+005 1.906346377334e+005 2.092124444325e+005 2.227319608983e+005 0.000000000000e+000 2.786806569283e+005 0.000000000000e+000 1.573320308912e+005 1.062163025825e+005 0.000000000000e+000 1.092618904943e+001 0.000000000000e+000 0.000000000000e+000 1.694238907322e+005 1.906955488778e+005 2.091795574151e+005 2.227541436255e+005 2.785896330592e+005 2.624846908648e+005 2.758823874229e+005 2.758843564752e+005 0.000000000000e+000 2.617891457493e+005 8.445966759837e+000 1.062362004865e+005 1.573914258681e+005 0.000000000000e+000 0.000000000000e+000 3.153377657278e+005 3.153712639541e+005 0.000000000000e+000 3.110117367883e+005 0.000000000000e+000 0.000000000000e+000 3.092356392146e+005 0.000000000000e+000 3.065890844830e+005 3.110216192770e+005 2.532093609270e+005 2.339812375339e+005 2.889178501868e+005 3.065154825807e+005 2.533841159384e+005 2.964907625810e+005 2.966212237595e+005 2.348229430937e+005 3.014145843926e+005 2.492335101063e+005 2.432292837953e+005 3.015640726382e+005 2.695789833371e+005 1.256113622859e+005 7.107018169863e+004 0.000000000000e+000 0.000000000000e+000 0.000000000000e+000 1.457095229389e+005 2.300536002334e+005 2.145322839550e+005 2.003997616898e+005 1.836060808959e+005 2.463800417240e+005 2.965885437092e+005 2.389545007203e+005 2.454708203162e+005 0.000000000000e+000 0.000000000000e+000 2.850722986265e+005 2.596087239985e+005 3.092507989967e+005 3.117854485766e+005 0.000000000000e+000 3.014622254822e+005 1.653857615028e+005 1.904588508164e+005 2.057394182314e+005 2.189302379041e+005 1.368759575611e+005 1.355140366964e+005 1.614078361250e+005 8.409636508723e+004 0.000000000000e+000 2.531925809521e+005 0.000000000000e+000 2.653254835726e+005 0.000000000000e+000 2.785720194899e+005 0.000000000000e+000 0.000000000000e+000 0.000000000000e+000 0.000000000000e+000 8.708751210800e+004 2.786086747255e+005 2.653290028405e+005 2.189476158497e+005 2.057586576823e+005 1.904905650589e+005 0.000000000000e+000 2.892464787618e+005 2.300162463457e+005 0.000000000000e+000 0.000000000000e+000 0.000000000000e+000 2.855842454824e+005 2.896737893852e+005 3.065684530633e+005 2.433030185556e+005 0.000000000000e+000 0.000000000000e+000 0.000000000000e+000 5.488132918993e+004 1.221003606257e+005 2.828276528064e+005 2.693324034362e+005 2.599472341054e+005 1.753591437769e+005 2.117670298788e+005 2.275679256112e+005 1.971709081314e+005 1.496286073055e+005 0.000000000000e+000 0.000000000000e+000 0.000000000000e+000 0.000000000000e+000 0.000000000000e+000 9.394741867431e+004 2.655335490989e+005 2.201520801497e+005 2.055256632149e+005 1.866971913784e+005 3.146561231226e+005 2.464377646798e+005 1.368825629359e+005 1.352971846650e+005 2.345545910192e+005 0.000000000000e+000 3.187560469454e+005 2.560249543190e+005 2.292148940063e+005 1.153713645794e+005 4.543037019640e+004 0.000000000000e+000 0.000000000000e+000 0.000000000000e+000 2.601815264724e+005 2.718072689216e+005 2.829426762416e+005 1.972545774195e+005 1.762904251163e+005 2.275649981781e+005 2.121459774292e+005 0.000000000000e+000 0.000000000000e+000 2.121155828311e+005 1.972039605653e+005 0.000000000000e+000 1.763041194439e+005 4.546143149652e+004 1.153457872315e+005 2.718102080778e+005 1.488600834757e+005 1.488413017956e+005 2.962529940891e+005 2.491048474029e+005 2.990021765381e+005 2.271867406491e+005 2.436869112686e+005 0.000000000000e+000 0.000000000000e+000 2.390837666171e+005 2.346485814067e+005 2.435377721710e+005 1.301124399603e+005 1.655672565192e+005 1.623172908462e+005 1.392941962118e+005 1.822766033946e+005 2.001878907907e+005 2.197244530261e+005 9.721682388044e+004 2.761544416898e+005 2.653044893513e+005 0.000000000000e+000 0.000000000000e+000 0.000000000000e+000 0.000000000000e+000 2.761473106830e+005 0.000000000000e+000 2.652838386690e+005 2.196634951265e+005 2.001240079688e+005 1.826387297987e+005 0.000000000000e+000 9.725857235331e+004 3.147552586557e+005 3.064933475597e+005 0.000000000000e+000 3.147773834952e+005 1.663458351247e+005 1.662487686812e+005 2.759678513455e+005 2.760030905271e+005 0.000000000000e+000 0.000000000000e+000 0.000000000000e+000 3.014161200764e+005 3.091856639411e+005 2.892481688769e+005 2.992193933026e+005 0.000000000000e+000 3.187542396908e+005 0.000000000000e+000 3.187610139284e+005 3.038538830038e+005 0.000000000000e+000 0.000000000000e+000 9.392439776711e+004 0.000000000000e+000 2.655547402724e+005 1.864629453192e+005 2.201049758346e+005 2.057113613801e+005 0.000000000000e+000 2.937878065146e+005 2.938344522650e+005 3.066103603493e+005 2.347852271668e+005 2.531907988197e+005 3.066654187870e+005 2.894989525554e+005 2.829047282075e+005 2.492323737483e+005 2.934480312854e+005 0.000000000000e+000 0.000000000000e+000 2.526543662707e+005 2.346173808615e+005 0.000000000000e+000 2.532692209975e+005 2.345497130096e+005 2.391423066666e+005 0.000000000000e+000 2.855844453933e+005 0.000000000000e+000 2.150440756932e+005 1.991193008743e+005 1.836777672150e+005 1.402349685201e+005 2.696016264145e+005 0.000000000000e+000 2.593836303263e+005 7.450899609794e+004 1.319749401747e+005 0.000000000000e+000 2.966304740902e+005 2.389924995405e+005 2.461740178059e+005 2.534795809673e+005 3.014696126431e+005 0.000000000000e+000 3.187316978062e+005 0.000000000000e+000 3.189310185683e+005 3.092705020956e+005 2.895604263186e+005 2.436745339582e+005 2.493051800568e+005 0.000000000000e+000 2.602257983595e+005 2.273639678266e+005 2.938302696116e+005 2.348270163031e+005 2.991491253914e+005 1.117577651980e+005 2.169007401172e+004 0.000000000000e+000 2.597666024354e+005 2.720362345586e+005 0.000000000000e+000 0.000000000000e+000 5.669908201211e+000 0.000000000000e+000 1.061854189213e+005 2.759101815312e+005 2.617509562748e+005 2.779396188990e+005 2.227697893189e+005 1.907707932736e+005 2.053143577605e+005 1.699101923138e+005 0.000000000000e+000 0.000000000000e+000 2.787588533796e+005 1.581957752152e+005 2.226092031174e+005 2.092032894545e+005 1.896296466898e+005 1.759980564735e+005 1.572999201714e+005 1.488339312478e+005 1.763085764349e+005 2.122216048594e+005 1.973362125527e+005 2.275486216575e+005 0.000000000000e+000 0.000000000000e+000 0.000000000000e+000 1.153498895023e+005 4.543572842532e+004 2.829550980425e+005 2.717729752863e+005 2.601656808248e+005 2.532015231683e+005 2.896006289752e+005 0.000000000000e+000 3.093085225397e+005 1.574033036642e+005 1.697976138962e+005 1.907090090316e+005 2.090861565999e+005 2.227515791917e+005 0.000000000000e+000 0.000000000000e+000 2.778796316896e+005 0.000000000000e+000 1.097300392086e+000 1.061017952004e+005 2.761015346136e+005 2.618035604181e+005 2.427069966800e+005 0.000000000000e+000 2.463830416696e+005 0.000000000000e+000 1.540747357318e+005 1.488872884422e+005 1.763302573788e+005 1.971233402691e+005 2.120615588854e+005 2.273764059776e+005 0.000000000000e+000 0.000000000000e+000 0.000000000000e+000 5.812303704609e+004 1.147736832655e+005 2.718041044293e+005 1.152608353478e+005 2.121829859980e+005 1.931700663831e+005 1.762988158693e+005 4.543866785319e+004 0.000000000000e+000 2.602053262753e+005 0.000000000000e+000 2.718002586573e+005 0.000000000000e+000 2.829433821253e+005 2.991250439109e+005 0.000000000000e+000 2.827782961194e+005 0.000000000000e+000 2.086133692315e+005 1.759887941580e+005 1.933430086915e+005 2.225528110155e+005 2.713288498004e+005 0.000000000000e+000 2.593715776360e+005 3.309739487161e+004 1.096246527996e+005 1.532668905422e+005 3.092409843168e+005 0.000000000000e+000 3.187375926762e+005 0.000000000000e+000 0.000000000000e+000 0.000000000000e+000 2.464616137843e+005 2.390227644336e+005 2.939503548641e+005 2.829214553239e+005 0.000000000000e+000 3.087354221693e+005 0.000000000000e+000 0.000000000000e+000 2.896300093061e+005 1.320285251832e+005 8.143662606396e+004 2.560726401059e+005 0.000000000000e+000 2.693375724524e+005 1.836483933032e+005 1.991334016652e+005 2.150599101009e+005 1.401825024711e+005 0.000000000000e+000 2.855730829342e+005 0.000000000000e+000 2.534160117581e+005 2.345397221989e+005 2.459528348217e+005 3.040010302524e+005 3.065855819491e+005 0.000000000000e+000 3.143961654524e+005 0.000000000000e+000 3.143843656720e+005 2.273426847313e+005 2.602309595650e+005 2.291786813113e+005 3.014911184231e+005 0.000000000000e+000 3.146458635410e+005 2.492990266613e+005 2.392449548324e+005 2.460026760825e+005 2.938742278566e+005 3.039349818392e+005 2.989182920184e+005 2.558657083917e+005 3.039088891298e+005 2.966640972357e+005 2.464111978643e+005 3.066466351511e+005 3.040163872795e+005 2.436088603328e+005 2.529215356154e+005 2.391972090266e+005 2.492746943389e+005 0.000000000000e+000 3.115823786292e+005 2.856289938970e+005 1.498443158715e+005 1.393294505957e+005 0.000000000000e+000 0.000000000000e+000 0.000000000000e+000 0.000000000000e+000 0.000000000000e+000 8.144512621191e+004 2.692904186346e+005 1.205393817561e+005 1.301202475725e+005 2.270955558483e+005 2.292467009658e+005 2.150967399276e+005 2.197246105993e+005 2.001217374821e+005 1.958540776311e+005 1.799022270353e+005 1.836384273597e+005 3.118540456624e+005 0.000000000000e+000 0.000000000000e+000 0.000000000000e+000 0.000000000000e+000 3.147891236458e+005 0.000000000000e+000 1.695129349271e+005 1.897063214986e+005 2.092214927310e+005 2.215901341041e+005 1.581252968846e+005 1.439672973467e+005 1.272367542647e+005 7.449404642304e+004 2.558863007641e+005 0.000000000000e+000 2.695636191721e+005 0.000000000000e+000 2.787357266207e+005 0.000000000000e+000 0.000000000000e+000 0.000000000000e+000 0.000000000000e+000 0.000000000000e+000 7.44947