<?xml version="1.0"?>
<VTKFile type="UnstructuredGrid" version="0.1" byte_order="LittleEndian">
  <UnstructuredGrid>
    <Piece NumberOfPoints="2604" NumberOfCells="4910">
      <Points>
        <DataArray type="Float64" NumberOfComponents="3" format="ascii">
          0.000000000000e+000 0.000000000000e+000 0.000000000000e+000
          2.000000000000e+002 0.000000000000e+000 0.000000000000e+000
          2.000000000000e+002 2.000000000000e+001 0.000000000000e+000
          0.000000000000e+000 2.000000000000e+001 0.000000000000e+000
          1.492537313427e+000 0.000000000000e+000 0.000000000000e+000
          2.985074626854e+000 0.000000000000e+000 0.000000000000e+000
          4.477611940281e+000 0.000000000000e+000 0.000000000000e+000
          5.970149253708e+000 0.000000000000e+000 0.000000000000e+000
          7.462686567135e+000 0.000000000000e+000 0.000000000000e+000
          8.955223880561e+000 0.000000000000e+000 0.000000000000e+000
          1.044776119399e+001 0.000000000000e+000 0.000000000000e+000
          1.194029850741e+001 0.000000000000e+000 0.000000000000e+000
          1.343283582084e+001 0.000000000000e+000 0.000000000000e+000
          1.492537313427e+001 0.000000000000e+000 0.000000000000e+000
          1.641791044770e+001 0.000000000000e+000 0.000000000000e+000
          1.791044776112e+001 0.000000000000e+000 0.000000000000e+000
          1.940298507455e+001 0.000000000000e+000 0.000000000000e+000
          2.089552238798e+001 0.000000000000e+000 0.000000000000e+000
          2.238805970141e+001 0.000000000000e+000 0.000000000000e+000
          2.388059701484e+001 0.000000000000e+000 0.000000000000e+000
          2.537313432826e+001 0.000000000000e+000 0.000000000000e+000
          2.686567164169e+001 0.000000000000e+000 0.000000000000e+000
          2.835820895511e+001 0.000000000000e+000 0.000000000000e+000
          2.985074626854e+001 0.000000000000e+000 0.000000000000e+000
          3.134328358196e+001 0.000000000000e+000 0.000000000000e+000
          3.283582089539e+001 0.000000000000e+000 0.000000000000e+000
          3.432835820881e+001 0.000000000000e+000 0.000000000000e+000
          3.582089552224e+001 0.000000000000e+000 0.000000000000e+000
          3.731343283566e+001 0.000000000000e+000 0.000000000000e+000
          3.880597014909e+001 0.000000000000e+000 0.000000000000e+000
          4.029850746251e+001 0.000000000000e+000 0.000000000000e+000
          4.179104477594e+001 0.000000000000e+000 0.000000000000e+000
          4.328358208936e+001 0.000000000000e+000 0.000000000000e+000
          4.477611940279e+001 0.000000000000e+000 0.000000000000e+000
          4.626865671621e+001 0.000000000000e+000 0.000000000000e+000
          4.776119402964e+001 0.000000000000e+000 0.000000000000e+000
          4.925373134306e+001 0.000000000000e+000 0.000000000000e+000
          5.074626865649e+001 0.000000000000e+000 0.000000000000e+000
          5.223880596991e+001 0.000000000000e+000 0.000000000000e+000
          5.373134328334e+001 0.000000000000e+000 0.000000000000e+000
          5.522388059676e+001 0.000000000000e+000 0.000000000000e+000
          5.671641791019e+001 0.000000000000e+000 0.000000000000e+000
          5.820895522361e+001 0.000000000000e+000 0.000000000000e+000
          5.970149253704e+001 0.000000000000e+000 0.000000000000e+000
          6.119402985046e+001 0.000000000000e+000 0.000000000000e+000
          6.268656716389e+001 0.000000000000e+000 0.000000000000e+000
          6.417910447732e+001 0.000000000000e+000 0.000000000000e+000
          6.567164179075e+001 0.000000000000e+000 0.000000000000e+000
          6.716417910418e+001 0.000000000000e+000 0.000000000000e+000
          6.865671641761e+001 0.000000000000e+000 0.000000000000e+000
          7.014925373104e+001 0.000000000000e+000 0.000000000000e+000
          7.164179104447e+001 0.000000000000e+000 0.000000000000e+000
          7.313432835790e+001 0.000000000000e+000 0.000000000000e+000
          7.462686567133e+001 0.000000000000e+000 0.000000000000e+000
          7.611940298476e+001 0.000000000000e+000 0.000000000000e+000
          7.761194029819e+001 0.000000000000e+000 0.000000000000e+000
          7.910447761162e+001 0.000000000000e+000 0.000000000000e+000
          8.059701492505e+001 0.000000000000e+000 0.000000000000e+000
          8.208955223848e+001 0.000000000000e+000 0.000000000000e+000
          8.358208955191e+001 0.000000000000e+000 0.000000000000e+000
          8.507462686534e+001 0.000000000000e+000 0.000000000000e+000
          8.656716417877e+001 0.000000000000e+000 0.000000000000e+000
          8.805970149220e+001 0.000000000000e+000 0.000000000000e+000
          8.955223880563e+001 0.000000000000e+000 0.000000000000e+000
          9.104477611907e+001 0.000000000000e+000 0.000000000000e+000
          9.253731343250e+001 0.000000000000e+000 0.000000000000e+000
          9.402985074593e+001 0.000000000000e+000 0.000000000000e+000
          9.552238805936e+001 0.000000000000e+000 0.000000000000e+000
          9.701492537279e+001 0.000000000000e+000 0.000000000000e+000
          9.850746268622e+001 0.000000000000e+000 0.000000000000e+000
          9.999999999965e+001 0.000000000000e+000 0.000000000000e+000
          1.014925373131e+002 0.000000000000e+000 0.000000000000e+000
          1.029850746265e+002 0.000000000000e+000 0.000000000000e+000
          1.044776119399e+002 0.000000000000e+000 0.000000000000e+000
          1.059701492534e+002 0.000000000000e+000 0.000000000000e+000
          1.074626865668e+002 0.000000000000e+000 0.000000000000e+000
          1.089552238802e+002 0.000000000000e+000 0.000000000000e+000
          1.104477611937e+002 0.000000000000e+000 0.000000000000e+000
          1.119402985071e+002 0.000000000000e+000 0.000000000000e+000
          1.134328358205e+002 0.000000000000e+000 0.000000000000e+000
          1.149253731340e+002 0.000000000000e+000 0.000000000000e+000
          1.164179104474e+002 0.000000000000e+000 0.000000000000e+000
          1.179104477608e+002 0.000000000000e+000 0.000000000000e+000
          1.194029850742e+002 0.000000000000e+000 0.000000000000e+000
          1.208955223877e+002 0.000000000000e+000 0.000000000000e+000
          1.223880597011e+002 0.000000000000e+000 0.000000000000e+000
          1.238805970145e+002 0.000000000000e+000 0.000000000000e+000
          1.253731343280e+002 0.000000000000e+000 0.000000000000e+000
          1.268656716414e+002 0.000000000000e+000 0.000000000000e+000
          1.283582089548e+002 0.000000000000e+000 0.000000000000e+000
          1.298507462683e+002 0.000000000000e+000 0.000000000000e+000
          1.313432835817e+002 0.000000000000e+000 0.000000000000e+000
          1.328358208952e+002 0.000000000000e+000 0.000000000000e+000
          1.343283582086e+002 0.000000000000e+000 0.000000000000e+000
          1.358208955220e+002 0.000000000000e+000 0.000000000000e+000
          1.373134328355e+002 0.000000000000e+000 0.000000000000e+000
          1.388059701489e+002 0.000000000000e+000 0.000000000000e+000
          1.402985074624e+002 0.000000000000e+000 0.000000000000e+000
          1.417910447758e+002 0.000000000000e+000 0.000000000000e+000
          1.432835820892e+002 0.000000000000e+000 0.000000000000e+000
          1.447761194027e+002 0.000000000000e+000 0.000000000000e+000
          1.462686567161e+002 0.000000000000e+000 0.000000000000e+000
          1.477611940296e+002 0.000000000000e+000 0.000000000000e+000
          1.492537313430e+002 0.000000000000e+000 0.000000000000e+000
          1.507462686564e+002 0.000000000000e+000 0.000000000000e+000
          1.522388059699e+002 0.000000000000e+000 0.000000000000e+000
          1.537313432833e+002 0.000000000000e+000 0.000000000000e+000
          1.552238805968e+002 0.000000000000e+000 0.000000000000e+000
          1.567164179102e+002 0.000000000000e+000 0.000000000000e+000
          1.582089552237e+002 0.000000000000e+000 0.000000000000e+000
          1.597014925371e+002 0.000000000000e+000 0.000000000000e+000
          1.611940298505e+002 0.000000000000e+000 0.000000000000e+000
          1.626865671640e+002 0.000000000000e+000 0.000000000000e+000
          1.641791044774e+002 0.000000000000e+000 0.000000000000e+000
          1.656716417909e+002 0.000000000000e+000 0.000000000000e+000
          1.671641791043e+002 0.000000000000e+000 0.000000000000e+000
          1.686567164177e+002 0.000000000000e+000 0.000000000000e+000
          1.701492537312e+002 0.000000000000e+000 0.000000000000e+000
          1.716417910446e+002 0.000000000000e+000 0.000000000000e+000
          1.731343283581e+002 0.000000000000e+000 0.000000000000e+000
          1.746268656715e+002 0.000000000000e+000 0.000000000000e+000
          1.761194029849e+002 0.000000000000e+000 0.000000000000e+000
          1.776119402984e+002 0.000000000000e+000 0.000000000000e+000
          1.791044776118e+002 0.000000000000e+000 0.000000000000e+000
          1.805970149253e+002 0.000000000000e+000 0.000000000000e+000
          1.820895522387e+002 0.000000000000e+000 0.000000000000e+000
          1.835820895521e+002 0.000000000000e+000 0.000000000000e+000
          1.850746268656e+002 0.000000000000e+000 0.000000000000e+000
          1.865671641790e+002 0.000000000000e+000 0.000000000000e+000
          1.880597014925e+002 0.000000000000e+000 0.000000000000e+000
          1.895522388059e+002 0.000000000000e+000 0.000000000000e+000
          1.910447761194e+002 0.000000000000e+000 0.000000000000e+000
          1.925373134328e+002 0.000000000000e+000 0.000000000000e+000
          1.940298507462e+002 0.000000000000e+000 0.000000000000e+000
          1.955223880597e+002 0.000000000000e+000 0.000000000000e+000
          1.970149253731e+002 0.000000000000e+000 0.000000000000e+000
          1.985074626866e+002 0.000000000000e+000 0.000000000000e+000
          2.000000000000e+002 1.428571428570e+000 0.000000000000e+000
          2.000000000000e+002 2.857142857140e+000 0.000000000000e+000
[...]
      <PointData Scalars="Capillary_Pressure">
        <DataArray type="Float64" Name="Capillary_Pressure" format="ascii">
          3.837378335225e+005 0.000000000000e+000 0.000000000000e+000 3.837404675690e+005 3.839694293797e+005 3.812145375398e+005 3.803521298417e+005 3.784099648865e+005 3.781368301976e+005 3.762321031003e+005 3.741969399407e+005 3.741217535413e+005 3.719449256474e+005 3.717792455022e+005 3.699136974846e+005 3.675323546469e+005 3.675685115327e+005 3.655480506796e+005 3.651450810757e+005 3.630356654635e+005 3.596280052788e+005 3.594345219314e+005 3.588741806964e+005 3.558605536994e+005 3.555359122385e+005 3.533480048404e+005 3.527334910567e+005 3.495850131932e+005 3.490972295183e+005 3.470319645996e+005 3.464093790036e+005 3.432038957773e+005 3.426905027035e+005 3.407159450695e+005 3.399964718645e+005 3.363858837279e+005 3.363270531432e+005 3.337199424060e+005 3.313266929368e+005 3.310642140259e+005 3.302902299629e+005 3.271219489085e+005 3.244695284130e+005 3.241061362909e+005 3.204576414576e+005 3.200016917730e+005 3.171689264520e+005 3.167110943166e+005 3.142799775267e+005 3.133903877961e+005 3.093038234866e+005 3.091372417421e+005 3.052842907484e+005 3.047517535361e+005 3.007856851265e+005 2.994515598691e+005 2.972743160578e+005 2.968376851771e+005 2.957312891754e+005 2.919463189643e+005 2.887265044928e+005 2.883894496924e+005 2.843538930112e+005 2.836605951846e+005 2.807608728323e+005 2.773957762405e+005 2.743947555301e+005 2.738078031670e+005 2.692535884243e+005 2.676821672018e+005 2.650785948075e+005 2.619419522436e+005 2.611225335707e+005 2.582595324568e+005 2.545352261624e+005 2.512128134898e+005 2.507037012585e+005 2.471744252472e+005 2.439443108991e+005 2.426676189339e+005 2.369585029693e+005 2.335812761439e+005 2.304746210422e+005 2.268735863061e+005 2.233583975727e+005 2.196396095084e+005 2.189443102750e+005 2.154491805817e+005 2.115821019992e+005 2.080498761673e+005 2.008187351475e+005 1.969635225900e+005 1.930608492959e+005 1.886972196163e+005 1.860797460137e+005 1.784893132843e+005 1.739738863869e+005 1.715131979559e+005 1.633357004350e+005 1.570970746793e+005 1.540407240474e+005 1.438570433340e+005 1.372976476209e+005 1.301855208899e+005 1.213588900345e+005 1.120702174740e+005 1.019037773406e+005 8.954398134025e+004 7.586015102244e+004 5.867792902376e+004 3.614191133211e+004 3.836394650094e+003 0.000000000000e+000 0.000000000000e+000 0.000000000000e+000 0.000000000000e+000 0.000000000000e+000 0.000000000000e+000 0.000000000000e+000 0.000000000000e+000 0.000000000000e+000 0.000000000000e+000 0.000000000000e+000 0.000000000000e+000 0.000000000000e+000 0.000000000000e+000 0.000000000000e+000 0.000000000000e+000 0.000000000000e+000 0.000000000000e+000 0.000000000000e+000 0.000000000000e+000 0.000000000000e+000 0.000000000000e+000 0.000000000000e+000 0.000000000000e+000 0.000000000000e+000 0.000000000000e+000 0.000000000000e+000 0.000000000000e+000 0.000000000000e+000 0.000000000000e+000 0.000000000000e+000 0.000000000000e+000 0.000000000000e+000 0.000000000000e+000 0.000000000000e+000 0.000000000000e+000 0.000000000000e+000 0.000000000000e+000 0.000000000000e+000 0.000000000000e+000 0.000000000000e+000 0.000000000000e+000 0.000000000000e+000 0.000000000000e+000 0.000000000000e+000 0.000000000000e+000 0.000000000000e+000 0.000000000000e+000 0.000000000000e+000 0.000000000000e+000 0.000000000000e+000 0.000000000000e+000 0.000000000000e+000 0.000000000000e+000 0.000000000000e+000 0.000000000000e+000 0.000000000000e+000 0.000000000000e+000 0.000000000000e+000 0.000000000000e+000 0.000000000000e+000 0.000000000000e+000 0.000000000000e+000 3.837217943826e+003 3.613042261462e+004 5.864726940952e+004 7.585245035704e+004 8.952766796883e+004 1.019071623760e+005 1.120920992614e+005 1.213472630685e+005 1.301829604914e+005 1.372906224482e+005 1.438481211168e+005 1.540383371134e+005 1.570888800163e+005 1.633163872674e+005 1.715067194746e+005 1.739694948170e+005 1.784997099225e+005 1.860669975388e+005 1.886942283217e+005 1.930493148004e+005 1.969461363929e+005 2.008104688027e+005 2.080414804492e+005 2.115889779102e+005 2.154559303163e+005 2.189409649564e+005 2.196439090025e+005 2.233641512542e+005 2.268884036626e+005 2.304661108121e+005 2.335898198651e+005 2.369307430839e+005 2.426608735498e+005 2.439300786506e+005 2.471834366154e+005 2.506880849048e+005 2.512023601398e+005 2.545235504746e+005 2.582458758570e+005 2.611376264997e+005 2.644594531905e+005 2.650809276070e+005 2.676670380982e+005 2.692271085755e+005 2.738208060438e+005 2.769858572266e+005 2.773871293040e+005 2.806918730743e+005 2.836703439013e+005 2.843616806134e+005 2.883833069426e+005 2.887350872917e+005 2.919778702132e+005 2.957293127468e+005 2.968400230694e+005 2.972931038321e+005 2.994673433629e+005 3.038151722771e+005 3.047713090341e+005 3.052833569834e+005 3.091488477599e+005 3.093484529128e+005 3.133731620306e+005 3.142482671044e+005 3.167022976297e+005 3.171559056660e+005 3.199791919877e+005 3.232472384274e+005 3.241070960961e+005 3.244510933472e+005 3.271215932675e+005 3.302886123479e+005 3.310685050116e+005 3.313172683016e+005 3.337197966597e+005 3.363287929237e+005 3.363827622182e+005 3.399950917666e+005 3.407118846049e+005 3.426883875868e+005 3.432068754995e+005 3.464069260387e+005 3.470309060895e+005 3.490964857502e+005 3.495784317623e+005 3.527358673838e+005 3.533421152925e+005 3.555350553671e+005 3.558651168316e+005 3.588751936243e+005 3.594351340003e+005 3.596350092156e+005 3.630252791152e+005 3.651414418801e+005 3.655473178048e+005 3.675776577211e+005 3.675204754415e+005 3.698718607413e+005 3.699303577767e+005 3.719597473644e+005 3.741219645952e+005 3.741855030193e+005 3.762407788520e+005 3.781426127099e+005 3.784228817902e+005 3.803117214086e+005 3.812180602288e+005 3.839688471010e+005 3.837410181399e+005 3.837386717502e+005 3.837414759885e+005 3.837407351507e+005 3.837368468248e+005 3.837390846277e+005 3.837400145177e+005 3.837370872859e+005 3.837380423947e+005 3.837414904936e+005 3.837389591366e+005 3.837380515391e+005 3.837381909161e+005 0.000000000000e+000 3.762165704087e+005 0.000000000000e+000 0.000000000000e+000 4.955851901250e+004 1.341294719792e+005 1.785420563323e+005 3.592304344020e+005 2.076527637954e+005 3.470615978653e+005 3.365851892675e+005 3.243702462434e+005 3.044194348200e+005 2.889957938567e+005 2.732980034758e+005 2.541708904270e+005 2.339481497709e+005 3.677615102685e+005 3.142674981598e+005 2.196247868163e+005 2.226668740790e+005 2.439218781710e+005 2.644802783407e+005 2.806717348174e+005 2.968451168618e+005 0.000000000000e+000 0.000000000000e+000 1.006828000871e+005 2.968391021328e+005 2.808751151882e+005 2.643157708249e+005 2.435524885193e+005 1.569066755103e+005 1.930308609491e+005 3.533567647963e+005 3.427585900417e+005 3.309993749522e+005 1.929895482356e+005 1.570721190768e+005 1.018851807767e+005 0.000000000000e+000 0.000000000000e+000 3.310902180134e+005 3.426926791096e+005 3.533347465163e+005 0.000000000000e+000 0.000000000000e+000 3.172690142865e+005 3.096771216859e+005 3.717725994433e+005 3.630267153814e+005 0.000000000000e+000 3.784169467753e+005 0.000000000000e+000 3.784266766702e+005 3.715368237577e+005 3.630697344417e+005 3.201268005070e+005 3.089083937058e+005 0.000000000000e+000 2.339458483570e+005 0.000000000000e+000 2.541669689620e+005 2.732889126442e+005 2.889792213357e+005 3.040490634291e+005 2.077006249284e+005 4.785627949419e+004 1.332337823046e+005 1.785064190968e+005 3.470947961436e+005 3.366486909419e+005 2.086401636286e+005 1.786588581403e+005 1.340524135637e+005 4.843484285076e+004 2.889960839226e+005 2.732801779988e+005 2.541909998175e+005 0.000000000000e+000 2.339218242338e+005 0.000000000000e+000 3.244349131913e+005 3.366016879700e+005 3.470886502743e+005 3.592339458791e+005 0.000000000000e+000 0.000000000000e+000 3.741854851568e+005 3.588664908641e+005 3.006147948121e+005 3.266300545296e+005 0.000000000000e+000 3.803682408264e+005 3.677474206173e+005 3.761801866396e+005 3.677654843370e+005 3.142908481810e+005 3.197721810855e+005 3.093862131791e+005 3.719543241587e+005 3.630016741420e+005 3.142413569435e+005 0.000000000000e+000 9.153816062241e+004 0.000000000000e+000 1.541515200408e+005 0.000000000000e+000 1.891286154848e+005 2.428429695976e+005 2.775926515624e+005 2.928704652501e+005 2.612606915154e+005 3.527504113387e+005 3.312671456800e+005 3.427122966876e+005 2.232455849486e+005 3.142805396380e+005 0.000000000000e+000 3.812046820637e+005 0.000000000000e+000 3.812014782068e+005 2.383202721595e+005 2.583305917667e+005 2.775927731661e+005 2.923870382654e+005 2.008593571959e+005 2.267361881181e+005 2.155028960585e+005 1.680254414761e+005 3.273157019180e+005 1.156655724949e+005 3.405074007248e+005 0.000000000000e+000 3.498654487908e+005 0.000000000000e+000 0.000000000000e+000 0.000000000000e+000 0.000000000000e+000 0.000000000000e+000 1.164812532994e+005 8.531974535354e+004 1.681622819745e+005 1.507188157774e+005 3.498050876493e+005 1.895649890928e+005 2.008764654020e+005 3.404629708207e+005 3.433799330447e+005 2.923600520739e+005 2.775774979872e+005 2.582811410749e+005 2.839843928435e+005 2.654199235868e+005 2.422843492252e+005 2.468098810683e+005 3.313711235660e+005 2.154873659500e+005 2.264913450911e+005 0.000000000000e+000 3.557025855908e+005 0.000000000000e+000 3.433106413370e+005 8.737111712475e+004 3.314551701042e+005 1.501092823964e+005 2.996815847191e+005 2.841214559689e+005 2.655595688112e+005 2.500007528177e+005 1.897312569269e+005 3.677425393569e+005 0.000000000000e+000 0.000000000000e+000 3.087551737417e+005 3.226994564405e+005 3.628462959330e+005 2.156011457182e+005 2.654167295016e+005 2.467379730089e+005 2.839299642452e+005 2.996639288873e+005 3.556744494062e+005 3.405523184003e+005 0.000000000000e+000 3.273357697174e+005 0.000000000000e+000 1.171415149301e+005 2.007525237519e+005 1.642105940990e+005 3.555405964066e+005 0.000000000000e+000 0.000000000000e+000 3.128971693528e+005 3.719473560417e+005 0.000000000000e+000 2.153203663690e+005 2.042495596288e+005 1.716213767184e+005 3.269441296871e+005 1.221279775742e+005 3.399488262227e+005 2.844151801003e+005 2.677080671604e+005 2.507751391580e+005 0.000000000000e+000 3.558607501674e+005 0.000000000000e+000 3.653250095386e+005 2.999003806096e+005 0.000000000000e+000 0.000000000000e+000 0.000000000000e+000 2.971728091343e+005 3.303658397706e+005 3.052161818459e+005 3.233741141913e+005 3.781529426789e+005 3.595895142716e+005 3.740865781702e+005 3.698200248241e+005 3.595868030569e+005 2.369503515922e+005 2.582586993583e+005 2.770142014895e+005 2.919875025034e+005 1.911692989846e+003 3.495877350281e+005 0.000000000000e+000 2.269414326125e+005 1.861005660704e+005 5.317540191684e+003 1.437427691502e+005 0.000000000000e+000 7.580216976879e+004 2.375154783808e+005 2.582847151883e+005 2.769631042504e+005 2.919397814400e+005 3.495178461106e+005 3.336880876498e+005 3.464217320888e+005 3.464186461594e+005 7.496886312099e+004 3.332623642831e+005 1.437599187679e+005 1.860072115125e+005 2.269134192244e+005 0.000000000000e+000 0.000000000000e+000 3.812031103369e+005 3.812112343951e+005 0.000000000000e+000 3.777086547987e+005 0.000000000000e+000 0.000000000000e+000 3.762782682706e+005 0.000000000000e+000 3.741004023617e+005 3.777181130872e+005 3.235672202343e+005 3.046270801839e+005 3.590311566922e+005 3.740084246389e+005 3.241620963936e+005 3.654345844929e+005 3.655791525002e+005 3.046669762225e+005 3.697091881882e+005 3.197066478727e+005 3.130256931157e+005 3.698662444778e+005 3.402732736487e+005 2.004105376412e+005 1.674198989144e+005 1.193025330182e+005 0.000000000000e+000 0.000000000000e+000 2.157406962532e+005 2.999259276005e+005 2.837888632105e+005 2.681979514762e+005 2.504289039377e+005 3.170990388558e+005 3.655129144252e+005 3.099119045327e+005 3.166596661063e+005 0.000000000000e+000 0.000000000000e+000 3.554155799668e+005 3.297722886793e+005 3.763074412334e+005 3.783745600267e+005 0.000000000000e+000 3.697643907292e+005 2.340354805715e+005 2.571489917008e+005 2.738617972606e+005 2.887584578617e+005 2.080747200505e+005 2.084432635578e+005 2.303776432952e+005 1.739104829490e+005 1.315492516656e+005 3.244815569712e+005 3.453960781846e+004 3.367476782822e+005 0.000000000000e+000 3.491192858632e+005 0.000000000000e+000 0.000000000000e+000 3.415547695688e+004 1.314860318063e+005 1.750597238918e+005 3.491361218674e+005 3.367551174027e+005 2.887355730982e+005 2.738776217494e+005 2.571665758820e+005 0.000000000000e+000 3.588577270691e+005 3.007122456259e+005 0.000000000000e+000 0.000000000000e+000 0.000000000000e+000 3.560542905414e+005 3.596950790458e+005 3.740871258516e+005 3.133127711017e+005 0.000000000000e+000 0.000000000000e+000 1.070023637686e+005 1.605328624914e+005 1.972387504500e+005 3.534140098148e+005 3.406372500181e+005 3.306377085293e+005 2.439479255364e+005 2.808772926845e+005 2.972517835572e+005 2.650645337579e+005 2.193195815003e+005 0.000000000000e+000 0.000000000000e+000 0.000000000000e+000 0.000000000000e+000 1.345739936093e+005 1.783971830831e+005 3.366787660503e+005 2.888376928254e+005 2.729901824119e+005 2.539743135725e+005 3.805900864502e+005 3.167725161812e+005 2.083881317105e+005 2.080496935034e+005 3.040639669456e+005 0.000000000000e+000 3.838133616694e+005 3.269514312911e+005 2.996391835915e+005 1.930783336904e+005 1.571505215287e+005 1.019387091363e+005 0.000000000000e+000 0.000000000000e+000 3.310454291134e+005 3.426715960715e+005 3.533458503668e+005 2.644568969335e+005 2.439370260117e+005 2.968411105466e+005 2.807550125278e+005 0.000000000000e+000 0.000000000000e+000 2.807379900399e+005 2.644391150434e+005 1.018906535755e+005 2.439408269862e+005 1.571016391192e+005 1.930053443430e+005 3.426931041893e+005 2.195942285431e+005 2.196535517331e+005 3.653043811895e+005 3.205714007938e+005 3.675298243236e+005 2.976204194194e+005 3.140836172962e+005 0.000000000000e+000 0.000000000000e+000 3.091439696566e+005 3.056644127201e+005 3.137224418035e+005 2.038329996842e+005 2.345268333819e+005 2.305190021374e+005 2.111438051769e+005 2.504900293052e+005 2.688306693299e+005 2.879855697803e+005 1.812889856208e+005 3.468342364789e+005 3.359997305707e+005 0.000000000000e+000 6.669861250686e+004 1.404420498622e+005 0.000000000000e+000 3.468310191751e+005 6.676151432786e+004 3.359946628258e+005 2.879794681574e+005 2.688068739090e+005 2.508742526235e+005 1.404487109320e+005 1.812998204217e+005 3.806834113482e+005 3.739610916812e+005 0.000000000000e+000 3.806770162157e+005 2.339124516335e+005 2.339919893498e+005 3.470983708000e+005 3.471068224284e+005 4.737187838505e+004 4.786578740119e+004 0.000000000000e+000 3.696631369266e+005 3.762131266859e+005 3.588431079489e+005 3.677789567625e+005 0.000000000000e+000 3.838141780676e+005 0.000000000000e+000 3.838129250248e+005 3.717918807534e+005 0.000000000000e+000 0.000000000000e+000 1.786899341752e+005 1.340748055398e+005 3.366036278548e+005 2.540565078374e+005 2.890304954311e+005 2.733365729787e+005 0.000000000000e+000 3.631311331734e+005 3.630877525998e+005 3.740998368204e+005 3.050275003793e+005 3.237226290212e+005 3.741232915324e+005 3.594387969719e+005 3.532460092827e+005 3.198450847681e+005 3.625837528361e+005 0.000000000000e+000 0.000000000000e+000 3.227615553023e+005 3.054218847184e+005 0.000000000000e+000 3.245981561483e+005 3.052793850842e+005 3.092298807674e+005 0.000000000000e+000 3.556993092450e+005 0.000000000000e+000 2.844065892598e+005 2.677146594193e+005 2.507680257175e+005 2.121118148958e+005 3.404861217769e+005 1.157329427088e+005 3.296894687841e+005 1.680835879184e+005 2.043395927953e+005 0.000000000000e+000 3.655723222849e+005 3.099973553728e+005 3.165440867416e+005 3.244495169031e+005 3.698913477013e+005 0.000000000000e+000 3.838133188129e+005 0.000000000000e+000 3.839560580609e+005 3.763457660137e+005 3.592143524350e+005 3.143594289862e+005 3.198349405444e+005 0.000000000000e+000 3.312812891539e+005 2.964592341528e+005 3.631004642830e+005 3.049607714740e+005 3.676632496303e+005 1.896410753204e+005 1.495838938126e+005 8.626002185346e+004 3.314960786549e+005 3.433855313254e+005 7.401718533786e+004 0.000000000000e+000 1.436491418876e+005 7.522341767176e+003 1.858915081402e+005 3.464579888373e+005 3.332906067024e+005 3.490195291749e+005 2.918990095612e+005 2.581867762282e+005 2.743056701970e+005 2.377185737855e+005 0.000000000000e+000 0.000000000000e+000 3.498243793810e+005 2.265845402011e+005 2.924621286335e+005 2.776749499801e+005 2.583991198280e+005 2.423083031232e+005 2.269944221102e+005 2.196272069762e+005 2.439302096266e+005 2.807651293469e+005 2.644928672033e+005 2.968439626886e+005 0.000000000000e+000 0.000000000000e+000 1.018498970080e+005 1.930213382827e+005 1.570622273421e+005 3.533382948299e+005 3.426897625707e+005 3.310670630827e+005 3.237699689982e+005 3.595825601519e+005 0.000000000000e+000 3.763401783548e+005 2.271473505060e+005 2.375870984974e+005 2.580854223311e+005 2.767385111599e+005 2.917909448988e+005 1.300691213573e+004 0.000000000000e+000 3.489240776642e+005 7.229585175333e+004 1.435165896001e+005 1.857425070138e+005 3.466467065138e+005 3.333443427460e+005 3.139019778142e+005 0.000000000000e+000 3.168249656861e+005 0.000000000000e+000 2.227971870279e+005 2.195343335618e+005 2.437361070685e+005 2.641318598514e+005 2.805103756145e+005 2.965395880668e+005 0.000000000000e+000 0.000000000000e+000 1.032563789621e+005 1.609270151217e+005 1.925923932855e+005 3.425891299010e+005 1.931504019784e+005 2.806377463023e+005 2.620644495660e+005 2.437807409180e+005 1.571997746028e+005 1.019818055167e+005 3.310097662976e+005 0.000000000000e+000 3.426502973406e+005 0.000000000000e+000 3.533432734335e+005 3.677590139153e+005 0.000000000000e+000 3.529575220120e+005 0.000000000000e+000 2.776243644373e+005 2.429017975395e+005 2.611145217449e+005 2.928890514247e+005 3.426130653177e+005 9.265370021141e+004 3.309630212884e+005 1.529183811148e+005 1.893324294403e+005 2.230287852116e+005 3.762507759381e+005 0.000000000000e+000 3.838158685605e+005 0.000000000000e+000 0.000000000000e+000 0.000000000000e+000 3.169833243652e+005 3.101491871978e+005 3.632425321242e+005 3.532823576643e+005 0.000000000000e+000 3.758564292848e+005 0.000000000000e+000 0.000000000000e+000 3.593600449043e+005 2.044031692016e+005 1.717510760015e+005 3.270475429229e+005 1.256814756199e+005 3.398970166983e+005 2.506752232490e+005 2.677172868431e+005 2.843461418794e+005 2.121138043777e+005 0.000000000000e+000 3.559450435363e+005 0.000000000000e+000 3.244631155681e+005 3.041306724030e+005 3.171940835524e+005 3.719158879388e+005 3.740867639451e+005 0.000000000000e+000 3.803954629346e+005 0.000000000000e+000 3.803970815042e+005 2.964148627912e+005 3.312655012045e+005 2.996429418652e+005 3.698023879336e+005 0.000000000000e+000 3.805951774987e+005 3.201860265831e+005 3.096092298041e+005 3.172959622768e+005 3.632653019192e+005 3.718155925254e+005 3.675986776159e+005 3.274381758532e+005 3.718212466321e+005 3.656102506389e+005 3.171300570621e+005 3.741979581130e+005 3.720031057724e+005 3.138351386027e+005 3.231667106167e+005 3.094347140534e+005 3.199128929426e+005 0.000000000000e+000 3.781483761116e+005 3.558156289682e+005 2.192626348716e+005 2.112137302158e+005 0.000000000000e+000 0.000000000000e+000 0.000000000000e+000 0.000000000000e+000 1.222209204889e+005 1.716977386397e+005 3.399106845438e+005 1.966347391722e+005 2.037805331335e+005 2.972465003690e+005 2.997685201913e+005 2.835775721273e+005 2.879272274073e+005 2.687341505862e+005 2.646091506109e+005 2.471808819019e+005 2.512074521518e+005 3.784104134464e+005 0.000000000000e+000 0.000000000000e+000 0.000000000000e+000 0.000000000000e+000 3.807098555478e+005 0.000000000000e+000 2.381401153854e+005 2.582190093968e+005 2.774921814927e+005 2.916838722796e+005 2.267475429941e+005 2.150461641148e+005 2.010026099160e+005 1.682399684929e+005 3.272154410769e+005 1.165390551954e+005 3.404255117262e+005 0.000000000000e+000 3.497925109346e+005 0.000000000000e+000 0.000000000000e+000 0.000000000000e+000 0.000000000000e+000 1.165612010888e+005 1.68238