<?xml version="1.0"?>
<VTKFile type="UnstructuredGrid" version="0.1" byte_order="LittleEndian">
  <UnstructuredGrid>
    <Piece NumberOfPoints="2604" NumberOfCells="4910">
      <Points>
        <DataArray type="Float64" NumberOfComponents="3" format="ascii">
          0.000000000000e+000 0.000000000000e+000 0.000000000000e+000
          2.000000000000e+002 0.000000000000e+000 0.000000000000e+000
          2.000000000000e+002 2.000000000000e+001 0.000000000000e+000
          0.000000000000e+000 2.000000000000e+001 0.000000000000e+000
          1.492537313427e+000 0.000000000000e+000 0.000000000000e+000
          2.985074626854e+000 0.000000000000e+000 0.000000000000e+000
          4.477611940281e+000 0.000000000000e+000 0.000000000000e+000
          5.970149253708e+000 0.000000000000e+000 0.000000000000e+000
          7.462686567135e+000 0.000000000000e+000 0.000000000000e+000
          8.955223880561e+000 0.000000000000e+000 0.000000000000e+000
          1.044776119399e+001 0.000000000000e+000 0.000000000000e+000
          1.194029850741e+001 0.000000000000e+000 0.000000000000e+000
          1.343283582084e+001 0.000000000000e+000 0.000000000000e+000
          1.492537313427e+001 0.000000000000e+000 0.000000000000e+000
          1.641791044770e+001 0.000000000000e+000 0.000000000000e+000
          1.791044776112e+001 0.000000000000e+000 0.000000000000e+000
          1.940298507455e+001 0.000000000000e+000 0.000000000000e+000
          2.089552238798e+001 0.000000000000e+000 0.000000000000e+000
          2.238805970141e+001 0.000000000000e+000 0.000000000000e+000
          2.388059701484e+001 0.000000000000e+000 0.000000000000e+000
          2.537313432826e+001 0.000000000000e+000 0.000000000000e+000
          2.686567164169e+001 0.000000000000e+000 0.000000000000e+000
          2.835820895511e+001 0.000000000000e+000 0.000000000000e+000
          2.985074626854e+001 0.000000000000e+000 0.000000000000e+000
          3.134328358196e+001 0.000000000000e+000 0.000000000000e+000
          3.283582089539e+001 0.000000000000e+000 0.000000000000e+000
          3.432835820881e+001 0.000000000000e+000 0.000000000000e+000
          3.582089552224e+001 0.000000000000e+000 0.000000000000e+000
          3.731343283566e+001 0.000000000000e+000 0.000000000000e+000
          3.880597014909e+001 0.000000000000e+000 0.000000000000e+000
          4.029850746251e+001 0.000000000000e+000 0.000000000000e+000
          4.179104477594e+001 0.000000000000e+000 0.000000000000e+000
          4.328358208936e+001 0.000000000000e+000 0.000000000000e+000
          4.477611940279e+001 0.000000000000e+000 0.000000000000e+000
          4.626865671621e+001 0.000000000000e+000 0.000000000000e+000
          4.776119402964e+001 0.000000000000e+000 0.000000000000e+000
          4.925373134306e+001 0.000000000000e+000 0.000000000000e+000
          5.074626865649e+001 0.000000000000e+000 0.000000000000e+000
          5.223880596991e+001 0.000000000000e+000 0.000000000000e+000
          5.373134328334e+001 0.000000000000e+000 0.000000000000e+000
          5.522388059676e+001 0.000000000000e+000 0.000000000000e+000
          5.671641791019e+001 0.000000000000e+000 0.000000000000e+000
          5.820895522361e+001 0.000000000000e+000 0.000000000000e+000
          5.970149253704e+001 0.000000000000e+000 0.000000000000e+000
          6.119402985046e+001 0.000000000000e+000 0.000000000000e+000
          6.268656716389e+001 0.000000000000e+000 0.000000000000e+000
          6.417910447732e+001 0.000000000000e+000 0.000000000000e+000
          6.567164179075e+001 0.000000000000e+000 0.000000000000e+000
          6.716417910418e+001 0.000000000000e+000 0.000000000000e+000
          6.865671641761e+001 0.000000000000e+000 0.000000000000e+000
          7.014925373104e+001 0.000000000000e+000 0.000000000000e+000
          7.164179104447e+001 0.000000000000e+000 0.000000000000e+000
          7.313432835790e+001 0.000000000000e+000 0.000000000000e+000
          7.462686567133e+001 0.000000000000e+000 0.000000000000e+000
          7.611940298476e+001 0.000000000000e+000 0.000000000000e+000
          7.761194029819e+001 0.000000000000e+000 0.000000000000e+000
          7.910447761162e+001 0.000000000000e+000 0.000000000000e+000
          8.059701492505e+001 0.000000000000e+000 0.000000000000e+000
          8.208955223848e+001 0.000000000000e+000 0.000000000000e+000
          8.358208955191e+001 0.000000000000e+000 0.000000000000e+000
          8.507462686534e+001 0.000000000000e+000 0.000000000000e+000
          8.656716417877e+001 0.000000000000e+000 0.000000000000e+000
          8.805970149220e+001 0.000000000000e+000 0.000000000000e+000
          8.955223880563e+001 0.000000000000e+000 0.000000000000e+000
          9.104477611907e+001 0.000000000000e+000 0.000000000000e+000
          9.253731343250e+001 0.000000000000e+000 0.000000000000e+000
          9.402985074593e+001 0.000000000000e+000 0.000000000000e+000
          9.552238805936e+001 0.000000000000e+000 0.000000000000e+000
          9.701492537279e+001 0.000000000000e+000 0.000000000000e+000
          9.850746268622e+001 0.000000000000e+000 0.000000000000e+000
          9.999999999965e+001 0.000000000000e+000 0.000000000000e+000
          1.014925373131e+002 0.000000000000e+000 0.000000000000e+000
          1.029850746265e+002 0.000000000000e+000 0.000000000000e+000
          1.044776119399e+002 0.000000000000e+000 0.000000000000e+000
          1.059701492534e+002 0.000000000000e+000 0.000000000000e+000
          1.074626865668e+002 0.000000000000e+000 0.000000000000e+000
          1.089552238802e+002 0.000000000000e+000 0.000000000000e+000
          1.104477611937e+002 0.000000000000e+000 0.000000000000e+000
          1.119402985071e+002 0.000000000000e+000 0.000000000000e+000
          1.134328358205e+002 0.000000000000e+000 0.000000000000e+000
          1.149253731340e+002 0.000000000000e+000 0.000000000000e+000
          1.164179104474e+002 0.000000000000e+000 0.000000000000e+000
          1.179104477608e+002 0.000000000000e+000 0.000000000000e+000
          1.194029850742e+002 0.000000000000e+000 0.000000000000e+000
          1.208955223877e+002 0.000000000000e+000 0.000000000000e+000
          1.223880597011e+002 0.000000000000e+000 0.000000000000e+000
          1.238805970145e+002 0.000000000000e+000 0.000000000000e+000
          1.253731343280e+002 0.000000000000e+000 0.000000000000e+000
          1.268656716414e+002 0.000000000000e+000 0.000000000000e+000
          1.283582089548e+002 0.000000000000e+000 0.000000000000e+000
          1.298507462683e+002 0.000000000000e+000 0.000000000000e+000
          1.313432835817e+002 0.000000000000e+000 0.000000000000e+000
          1.328358208952e+002 0.000000000000e+000 0.000000000000e+000
          1.343283582086e+002 0.000000000000e+000 0.000000000000e+000
          1.358208955220e+002 0.000000000000e+000 0.000000000000e+000
          1.373134328355e+002 0.000000000000e+000 0.000000000000e+000
          1.388059701489e+002 0.000000000000e+000 0.000000000000e+000
          1.402985074624e+002 0.000000000000e+000 0.000000000000e+000
          1.417910447758e+002 0.000000000000e+000 0.000000000000e+000
          1.432835820892e+002 0.000000000000e+000 0.000000000000e+000
          1.447761194027e+002 0.000000000000e+000 0.000000000000e+000
          1.462686567161e+002 0.000000000000e+000 0.000000000000e+000
          1.477611940296e+002 0.000000000000e+000 0.000000000000e+000
          1.492537313430e+002 0.000000000000e+000 0.000000000000e+000
          1.507462686564e+002 0.000000000000e+000 0.000000000000e+000
          1.522388059699e+002 0.000000000000e+000 0.000000000000e+000
          1.537313432833e+002 0.000000000000e+000 0.000000000000e+000
          1.552238805968e+002 0.000000000000e+000 0.000000000000e+000
          1.567164179102e+002 0.000000000000e+000 0.000000000000e+000
          1.582089552237e+002 0.000000000000e+000 0.000000000000e+000
          1.597014925371e+002 0.000000000000e+000 0.000000000000e+000
          1.611940298505e+002 0.000000000000e+000 0.000000000000e+000
          1.626865671640e+002 0.000000000000e+000 0.000000000000e+000
          1.641791044774e+002 0.000000000000e+000 0.000000000000e+000
          1.656716417909e+002 0.000000000000e+000 0.000000000000e+000
          1.671641791043e+002 0.000000000000e+000 0.000000000000e+000
          1.686567164177e+002 0.000000000000e+000 0.000000000000e+000
          1.701492537312e+002 0.000000000000e+000 0.000000000000e+000
          1.716417910446e+002 0.000000000000e+000 0.000000000000e+000
          1.731343283581e+002 0.000000000000e+000 0.000000000000e+000
          1.746268656715e+002 0.000000000000e+000 0.000000000000e+000
          1.761194029849e+002 0.000000000000e+000 0.000000000000e+000
          1.776119402984e+002 0.000000000000e+000 0.000000000000e+000
          1.791044776118e+002 0.000000000000e+000 0.000000000000e+000
          1.805970149253e+002 0.000000000000e+000 0.000000000000e+000
          1.820895522387e+002 0.000000000000e+000 0.000000000000e+000
          1.835820895521e+002 0.000000000000e+000 0.000000000000e+000
          1.850746268656e+002 0.000000000000e+000 0.000000000000e+000
          1.865671641790e+002 0.000000000000e+000 0.000000000000e+000
          1.880597014925e+002 0.000000000000e+000 0.000000000000e+000
          1.895522388059e+002 0.000000000000e+000 0.000000000000e+000
          1.910447761194e+002 0.000000000000e+000 0.000000000000e+000
          1.925373134328e+002 0.000000000000e+000 0.000000000000e+000
          1.940298507462e+002 0.000000000000e+000 0.000000000000e+000
          1.955223880597e+002 0.000000000000e+000 0.000000000000e+000
          1.970149253731e+002 0.000000000000e+000 0.000000000000e+000
          1.985074626866e+002 0.000000000000e+000 0.000000000000e+000
          2.000000000000e+002 1.428571428570e+000 0.000000000000e+000
          2.000000000000e+002 2.857142857140e+000 0.000000000000e+000
[...]
      <PointData Scalars="Capillary_Pressure">
        <DataArray type="Float64" Name="Capillary_Pressure" format="ascii">
          3.563457987821e+005 0.000000000000e+000 0.000000000000e+000 3.563520148117e+005 3.566233484684e+005 3.535520825185e+005 3.526539823444e+005 3.505391921653e+005 3.502646738293e+005 3.481988313040e+005 3.460221937128e+005 3.459686120560e+005 3.436582679270e+005 3.435781749550e+005 3.416133006439e+005 3.390656996027e+005 3.391905790343e+005 3.370858383635e+005 3.367684505849e+005 3.345513620614e+005 3.309062466057e+005 3.308699082112e+005 3.304007713009e+005 3.272193216422e+005 3.270473181397e+005 3.247973283693e+005 3.243213976049e+005 3.210160980891e+005 3.207040704022e+005 3.186186109302e+005 3.181900343161e+005 3.148245656668e+005 3.145210160509e+005 3.125670868169e+005 3.120767702579e+005 3.082590734245e+005 3.085296116687e+005 3.059275371811e+005 3.035061665243e+005 3.035640796913e+005 3.030579511175e+005 2.997977252280e+005 2.972501856533e+005 2.971308109901e+005 2.934019996982e+005 2.932620090903e+005 2.904368967045e+005 2.903514241276e+005 2.880119380677e+005 2.873806690461e+005 2.832651249090e+005 2.834636937521e+005 2.795382986865e+005 2.793930604911e+005 2.753660186837e+005 2.743309633613e+005 2.723298264404e+005 2.723135764350e+005 2.715518929612e+005 2.677920013267e+005 2.645927081633e+005 2.647506370719e+005 2.607484010462e+005 2.604071962401e+005 2.577044519479e+005 2.544181781442e+005 2.515901623900e+005 2.514834030449e+005 2.468422034632e+005 2.456783839181e+005 2.432857549752e+005 2.402903189689e+005 2.400121676726e+005 2.373401555406e+005 2.337357924694e+005 2.305375753363e+005 2.305912206819e+005 2.272350244932e+005 2.241998442820e+005 2.234440591608e+005 2.175126806063e+005 2.144008641745e+005 2.115489382644e+005 2.080818989017e+005 2.047902602897e+005 2.012045371956e+005 2.010916832609e+005 1.978168717386e+005 1.941115836071e+005 1.907566627793e+005 1.832603591835e+005 1.795692880917e+005 1.757976657186e+005 1.715516036622e+005 1.692576033718e+005 1.612752311667e+005 1.567890918927e+005 1.547223328348e+005 1.459597656415e+005 1.394244711304e+005 1.366376470225e+005 1.252900449452e+005 1.181912725131e+005 1.103301930782e+005 1.001788380081e+005 8.915401629821e+004 7.655934930263e+004 6.013799558892e+004 4.033075536164e+004 1.267227246229e+004 0.000000000000e+000 0.000000000000e+000 0.000000000000e+000 0.000000000000e+000 0.000000000000e+000 0.000000000000e+000 0.000000000000e+000 0.000000000000e+000 0.000000000000e+000 0.000000000000e+000 0.000000000000e+000 0.000000000000e+000 0.000000000000e+000 0.000000000000e+000 0.000000000000e+000 0.000000000000e+000 0.000000000000e+000 0.000000000000e+000 0.000000000000e+000 0.000000000000e+000 0.000000000000e+000 0.000000000000e+000 0.000000000000e+000 0.000000000000e+000 0.000000000000e+000 0.000000000000e+000 0.000000000000e+000 0.000000000000e+000 0.000000000000e+000 0.000000000000e+000 0.000000000000e+000 0.000000000000e+000 0.000000000000e+000 0.000000000000e+000 0.000000000000e+000 0.000000000000e+000 0.000000000000e+000 0.000000000000e+000 0.000000000000e+000 0.000000000000e+000 0.000000000000e+000 0.000000000000e+000 0.000000000000e+000 0.000000000000e+000 0.000000000000e+000 0.000000000000e+000 0.000000000000e+000 0.000000000000e+000 0.000000000000e+000 0.000000000000e+000 0.000000000000e+000 0.000000000000e+000 0.000000000000e+000 0.000000000000e+000 0.000000000000e+000 0.000000000000e+000 0.000000000000e+000 0.000000000000e+000 0.000000000000e+000 0.000000000000e+000 0.000000000000e+000 0.000000000000e+000 0.000000000000e+000 0.000000000000e+000 0.000000000000e+000 0.000000000000e+000 0.000000000000e+000 1.260752654317e+004 4.033424546027e+004 6.011464837778e+004 7.656147428648e+004 8.919676453978e+004 1.001636726058e+005 1.103390994258e+005 1.181910733277e+005 1.252685879575e+005 1.366355408180e+005 1.394200387105e+005 1.459352326642e+005 1.547038213051e+005 1.567821216667e+005 1.612750094143e+005 1.692444955304e+005 1.715309526413e+005 1.757909865357e+005 1.795323484624e+005 1.832444456191e+005 1.907940610866e+005 1.940983678899e+005 1.977985977584e+005 2.010782707498e+005 2.012052384483e+005 2.047906439094e+005 2.081169662328e+005 2.115663396967e+005 2.144027946511e+005 2.175007924616e+005 2.234117631111e+005 2.241998586989e+005 2.272687019689e+005 2.305842145248e+005 2.305199006609e+005 2.337296065671e+005 2.373339201229e+005 2.400288824439e+005 2.431567174516e+005 2.432820703219e+005 2.456800919636e+005 2.468001113240e+005 2.514986604838e+005 2.545014771044e+005 2.544719059928e+005 2.576036137012e+005 2.604268505155e+005 2.607667583145e+005 2.647445703729e+005 2.646032114244e+005 2.678465968191e+005 2.715484064593e+005 2.723176249500e+005 2.723650968183e+005 2.743400540210e+005 2.788030605458e+005 2.794088937923e+005 2.795246377486e+005 2.834821610263e+005 2.832966392351e+005 2.873782019814e+005 2.879805635228e+005 2.903281972105e+005 2.903924823994e+005 2.932307528537e+005 2.965708131776e+005 2.971226952408e+005 2.971811559233e+005 2.998122545994e+005 3.030248279739e+005 3.035825985211e+005 3.034890462254e+005 3.058955478574e+005 3.085474213104e+005 3.082536490101e+005 3.120816961414e+005 3.125570374971e+005 3.145171884076e+005 3.148212666236e+005 3.181937129816e+005 3.186156576569e+005 3.207049774543e+005 3.210009111102e+005 3.243345782581e+005 3.247848334234e+005 3.270369039534e+005 3.272267739655e+005 3.304046901899e+005 3.308562981824e+005 3.309027833267e+005 3.345440012780e+005 3.367613538236e+005 3.370739118325e+005 3.391923381273e+005 3.390940994441e+005 3.414732571672e+005 3.414967912879e+005 3.436421854719e+005 3.459996015405e+005 3.459714815343e+005 3.482253145929e+005 3.502637489277e+005 3.505444146190e+005 3.526133994248e+005 3.535647269003e+005 3.566188092006e+005 3.563542254890e+005 3.563537596805e+005 3.563513752088e+005 3.563519752966e+005 3.563477382736e+005 3.563491860089e+005 3.563490571387e+005 3.563451806948e+005 3.563495197638e+005 3.563553165118e+005 3.563462007163e+005 3.563509131788e+005 3.563499808730e+005 0.000000000000e+000 3.482152061349e+005 0.000000000000e+000 0.000000000000e+000 0.000000000000e+000 1.146910083245e+005 1.616675552405e+005 3.307157395996e+005 1.900137141017e+005 3.185459107612e+005 3.086954098565e+005 2.972788718227e+005 2.792196243592e+005 2.652028939804e+005 2.511905944304e+005 2.336541450279e+005 2.150872824751e+005 3.393421655253e+005 2.879798086279e+005 2.012081981768e+005 2.045975002871e+005 2.241768908810e+005 2.432457183011e+005 2.575820301938e+005 2.723227871225e+005 0.000000000000e+000 0.000000000000e+000 7.499207682835e+004 2.723139081725e+005 2.577484803283e+005 2.430604978014e+005 2.236438622722e+005 1.392939230122e+005 1.757538844630e+005 3.247965440781e+005 3.145583007210e+005 3.035263966050e+005 1.758122412309e+005 1.394099071731e+005 7.653135363619e+004 0.000000000000e+000 0.000000000000e+000 3.036051152592e+005 3.145210316949e+005 3.247887705630e+005 0.000000000000e+000 0.000000000000e+000 2.904688723435e+005 2.837575292536e+005 3.435319895326e+005 3.344957300571e+005 0.000000000000e+000 3.505305062694e+005 0.000000000000e+000 3.505505543242e+005 3.432621330804e+005 3.345593630084e+005 2.933264356118e+005 2.832784402984e+005 0.000000000000e+000 2.151266695476e+005 0.000000000000e+000 2.336350870775e+005 2.512019031953e+005 2.652073114498e+005 2.789226410661e+005 1.900291162838e+005 0.000000000000e+000 1.137291623697e+005 1.617453202502e+005 3.185531899487e+005 3.087150656977e+005 1.910930419534e+005 1.618243887395e+005 1.146559795471e+005 0.000000000000e+000 2.652126747874e+005 2.511946174827e+005 2.336504351064e+005 0.000000000000e+000 2.150519398477e+005 0.000000000000e+000 2.973187784234e+005 3.086708813438e+005 3.185437843958e+005 3.307296070674e+005 0.000000000000e+000 0.000000000000e+000 3.459786357943e+005 3.304142151128e+005 2.752589515610e+005 2.995221337774e+005 0.000000000000e+000 3.526791205501e+005 3.393351907903e+005 3.481749217879e+005 3.393631934895e+005 2.877142342266e+005 2.932262312039e+005 2.836107185417e+005 3.436875196155e+005 3.345160321120e+005 2.879828947094e+005 0.000000000000e+000 6.294668985595e+004 0.000000000000e+000 1.366848809740e+005 0.000000000000e+000 1.719250905354e+005 2.234704266082e+005 2.547046385116e+005 2.682602696592e+005 2.401632389250e+005 3.243399063086e+005 3.034672088958e+005 3.143053031876e+005 2.047236432432e+005 2.880238934516e+005 0.000000000000e+000 3.535458297106e+005 0.000000000000e+000 3.535483086977e+005 2.187239822872e+005 2.369461507054e+005 2.548279991475e+005 2.679762554712e+005 1.837333584288e+005 2.082981901076e+005 1.974286790124e+005 1.511545232617e+005 2.998308677115e+005 9.348447239482e+004 3.124474829530e+005 0.000000000000e+000 3.211903818389e+005 0.000000000000e+000 0.000000000000e+000 0.000000000000e+000 0.000000000000e+000 0.000000000000e+000 9.446526543240e+004 5.419881130468e+004 1.512479548617e+005 1.329404755131e+005 3.211612795236e+005 1.727632473055e+005 1.837348019876e+005 3.124255399451e+005 3.149120672456e+005 2.678975868163e+005 2.548306250349e+005 2.370019043950e+005 2.606170121476e+005 2.434870059473e+005 2.232073436437e+005 2.265654287026e+005 3.035370876703e+005 1.974756338110e+005 2.081646551483e+005 0.000000000000e+000 3.271614837430e+005 0.000000000000e+000 3.148671829205e+005 5.716074647196e+004 3.035957448356e+005 1.321411388955e+005 2.747886172508e+005 2.607186577076e+005 2.435783175917e+005 2.301362900820e+005 1.728972009167e+005 3.393037166706e+005 0.000000000000e+000 0.000000000000e+000 2.831920315760e+005 2.961472596777e+005 3.344213078132e+005 1.975120728008e+005 2.434900314435e+005 2.264882898218e+005 2.605529632548e+005 2.747814273501e+005 3.271421496641e+005 3.124503631678e+005 0.000000000000e+000 2.997975734373e+005 0.000000000000e+000 9.550336835708e+004 1.836724944140e+005 1.467586607281e+005 3.270307116811e+005 0.000000000000e+000 0.000000000000e+000 2.871236857912e+005 3.436617184570e+005 0.000000000000e+000 1.977024021280e+005 1.871109490955e+005 1.547843085371e+005 2.996597986876e+005 1.010782386859e+005 3.120218485043e+005 2.607570482705e+005 2.456296916325e+005 2.306602120932e+005 0.000000000000e+000 3.272179890309e+005 0.000000000000e+000 3.368880328424e+005 2.748769263566e+005 0.000000000000e+000 0.000000000000e+000 0.000000000000e+000 2.722830011217e+005 3.030220991259e+005 2.795221732742e+005 2.965986306587e+005 3.502903220774e+005 3.308859084442e+005 3.459512613652e+005 3.414522860431e+005 3.308710496592e+005 2.174711553601e+005 2.373288006081e+005 2.545380311719e+005 2.678165039462e+005 0.000000000000e+000 3.210001387832e+005 0.000000000000e+000 2.081466145472e+005 1.692852061869e+005 0.000000000000e+000 1.251956409534e+005 0.000000000000e+000 4.034578800199e+004 2.181657857557e+005 2.373735854167e+005 2.545094576371e+005 2.678105450360e+005 3.209198193198e+005 3.058778070885e+005 3.181890554076e+005 3.181830913346e+005 3.897881628464e+004 3.053634484687e+005 1.252136008291e+005 1.692218742880e+005 2.081407960871e+005 0.000000000000e+000 0.000000000000e+000 3.535507767969e+005 3.535690674509e+005 0.000000000000e+000 3.497881909511e+005 0.000000000000e+000 0.000000000000e+000 3.482406819209e+005 0.000000000000e+000 3.459261424362e+005 3.497919861298e+005 2.967835837281e+005 2.789771706881e+005 3.303175430690e+005 3.458526948511e+005 2.971558412439e+005 3.369646585284e+005 3.371011177575e+005 2.793565570393e+005 3.413613552263e+005 2.931333842589e+005 2.871776917834e+005 3.414970621009e+005 3.123173340689e+005 1.829833623292e+005 1.501254872675e+005 9.779066070539e+004 0.000000000000e+000 0.000000000000e+000 1.979526723014e+005 2.749416759254e+005 2.602045525094e+005 2.463809721756e+005 2.304324786548e+005 2.905790097117e+005 3.370495580948e+005 2.837637051092e+005 2.899610481076e+005 0.000000000000e+000 0.000000000000e+000 3.267793868457e+005 3.027107399416e+005 3.482606734309e+005 3.504832731496e+005 0.000000000000e+000 3.414081432594e+005 2.148297767700e+005 2.366133852850e+005 2.514904498557e+005 2.645798167847e+005 1.907787656773e+005 1.906335077387e+005 2.114259522438e+005 1.567514078963e+005 1.120680015926e+005 2.972219591217e+005 0.000000000000e+000 3.086633496398e+005 0.000000000000e+000 3.207297422655e+005 0.000000000000e+000 0.000000000000e+000 0.000000000000e+000 1.120172442409e+005 1.581054640652e+005 3.207553597083e+005 3.086669955039e+005 2.645774338477e+005 2.515163171624e+005 2.366558018134e+005 0.000000000000e+000 3.303958053982e+005 2.753171632806e+005 0.000000000000e+000 0.000000000000e+000 0.000000000000e+000 3.273183269254e+005 3.309865992967e+005 3.459123602250e+005 2.873588458080e+005 0.000000000000e+000 0.000000000000e+000 8.288074993726e+004 1.430211573823e+005 1.801379815408e+005 3.247655730741e+005 3.123796353336e+005 3.032846106151e+005 2.238879712550e+005 2.576090356027e+005 2.725292477284e+005 2.434940007005e+005 2.012660141838e+005 0.000000000000e+000 0.000000000000e+000 0.000000000000e+000 0.000000000000e+000 1.154424890723e+005 1.616625594186e+005 3.087374112469e+005 2.651611051129e+005 2.509783669835e+005 2.335199982766e+005 3.529270166014e+005 2.904561884112e+005 1.909836394664e+005 1.902891140764e+005 2.789329873885e+005 0.000000000000e+000 3.564618051471e+005 2.996974164616e+005 2.744449061847e+005 1.758537023253e+005 1.394587092747e+005 7.655230004928e+004 0.000000000000e+000 0.000000000000e+000 3.035694894960e+005 3.144954295662e+005 3.247904744776e+005 2.431537136053e+005 2.242066420402e+005 2.723218008145e+005 2.576760888462e+005 0.000000000000e+000 0.000000000000e+000 2.576220955775e+005 2.431200863296e+005 7.652912884616e+004 2.242087175379e+005 1.394301519428e+005 1.757959523453e+005 3.145036333808e+005 2.011725088539e+005 2.012022755155e+005 3.367918412121e+005 2.935071106506e+005 3.391680885690e+005 2.725544388960e+005 2.879005938607e+005 0.000000000000e+000 0.000000000000e+000 2.834259559921e+005 2.797946236572e+005 2.876588930085e+005 1.862790984143e+005 2.152172507728e+005 2.118099370834e+005 1.932871506843e+005 2.299730220634e+005 2.466471711712e+005 2.645091002867e+005 1.641885397356e+005 3.185124430290e+005 3.083023213235e+005 0.000000000000e+000 2.592410937298e+004 1.216448939736e+005 0.000000000000e+000 3.185062899963e+005 2.603816952208e+004 3.082845450013e+005 2.644714501417e+005 2.465974045970e+005 2.303277352814e+005 1.216583168206e+005 1.642041753034e+005 3.530175105937e+005 3.458137823852e+005 0.000000000000e+000 3.530232424303e+005 2.151272239627e+005 2.151165925749e+005 3.185471129247e+005 3.185711016476e+005 0.000000000000e+000 0.000000000000e+000 0.000000000000e+000 3.413259713451e+005 3.481901741051e+005 3.303932220792e+005 3.393891627334e+005 0.000000000000e+000 3.564530302364e+005 0.000000000000e+000 3.564566398382e+005 3.435125856001e+005 0.000000000000e+000 0.000000000000e+000 1.618433604251e+005 1.146633903397e+005 3.087091868219e+005 2.334779244918e+005 2.652228113449e+005 2.512193791804e+005 0.000000000000e+000 3.345992204007e+005 3.345846778938e+005 3.459368150315e+005 2.795268433932e+005 2.968628775147e+005 3.459771251477e+005 3.307858687473e+005 3.247274439324e+005 2.931908536196e+005 3.341597168588e+005 0.000000000000e+000 0.000000000000e+000 2.961345588177e+005 2.796594399779e+005 0.000000000000e+000 2.973190954697e+005 2.795529793581e+005 2.835076770066e+005 0.000000000000e+000 3.271614547034e+005 0.000000000000e+000 2.607455984605e+005 2.456187851344e+005 2.306481566505e+005 1.942172929071e+005 3.124291485262e+005 9.353653581138e+004 3.025130842929e+005 1.511956165543e+005 1.871346318096e+005 0.000000000000e+000 3.371138924104e+005 2.838220570640e+005 2.901995841032e+005 2.973355445637e+005 3.414551450771e+005 0.000000000000e+000 3.564418483947e+005 0.000000000000e+000 3.566072343162e+005 3.482918330147e+005 3.307176360863e+005 2.880284205798e+005 2.932216162386e+005 0.000000000000e+000 3.036950730618e+005 2.720539426545e+005 3.345959133266e+005 2.795141201310e+005 3.393103523217e+005 1.728097833193e+005 1.315586912556e+005 5.556625687204e+004 3.035889714996e+005 3.149402162652e+005 3.750839085044e+004 0.000000000000e+000 1.251402330021e+005 0.000000000000e+000 1.691373538189e+005 3.182211714221e+005 3.053536935024e+005 3.203799391065e+005 2.677925120787e+005 2.373578322164e+005 2.515664951316e+005 2.184852605013e+005 0.000000000000e+000 0.000000000000e+000 3.211499487260e+005 2.082100809872e+005 2.680247874330e+005 2.548678960841e+005 2.369966639294e+005 2.232045506372e+005 2.081111953783e+005 2.011919724991e+005 2.242030203842e+005 2.577282174855e+005 2.432314458152e+005 2.723154215189e+005 0.000000000000e+000 0.000000000000e+000 7.649554715473e+004 1.757643394503e+005 1.393855177031e+005 3.247921039813e+005 3.144869916572e+005 3.035701655669e+005 2.968766203304e+005 3.309070285944e+005 0.000000000000e+000 3.483017968198e+005 2.082733991898e+005 2.183556099272e+005 2.372780720590e+005 2.543381734667e+005 2.677358123558e+005 0.000000000000e+000 0.000000000000e+000 3.203065562380e+005 3.479513058221e+004 1.250604936091e+005 1.690120378972e+005 3.183938546830e+005 3.054144281951e+005 2.873689168203e+005 0.000000000000e+000 2.904522249538e+005 0.000000000000e+000 2.046984771041e+005 2.011674878419e+005 2.241059572484e+005 2.429081905394e+005 2.575012808874e+005 2.721056323587e+005 0.000000000000e+000 0.000000000000e+000 7.819323829032e+004 1.437844833637e+005 1.753810777281e+005 3.144575890871e+005 1.757794465147e+005 2.576367746130e+005 2.403054386631e+005 2.241143972756e+005 1.394832722270e+005 7.656623039008e+004 3.035635226863e+005 0.000000000000e+000 3.144833137505e+005 0.000000000000e+000 3.247900364276e+005 3.393241448135e+005 0.000000000000e+000 3.245332856937e+005 0.000000000000e+000 2.546466545819e+005 2.235015355214e+005 2.398820744450e+005 2.682054743640e+005 3.142512339691e+005 6.435210140616e+004 3.031446819520e+005 1.350944023205e+005 1.720792773068e+005 2.045473281452e+005 3.482373069305e+005 0.000000000000e+000 3.564510441757e+005 0.000000000000e+000 0.000000000000e+000 0.000000000000e+000 2.905670675293e+005 2.839025664994e+005 3.347112762760e+005 3.247540955061e+005 0.000000000000e+000 3.478014160499e+005 0.000000000000e+000 0.000000000000e+000 3.308145050787e+005 1.871793769175e+005 1.548713235556e+005 2.997869647084e+005 1.055033723235e+005 3.120248471310e+005 2.305840168917e+005 2.456428795015e+005 2.607403894920e+005 1.941700691765e+005 0.000000000000e+000 3.272652840157e+005 0.000000000000e+000 2.973229658625e+005 2.789657620658e+005 2.904256516745e+005 3.436449345519e+005 3.459258390338e+005 0.000000000000e+000 3.527027876989e+005 0.000000000000e+000 3.527015426960e+005 2.720245527659e+005 3.036900818398e+005 2.744167091515e+005 3.414409910352e+005 0.000000000000e+000 3.529184699212e+005 2.933813366427e+005 2.837456703894e+005 2.905023061569e+005 3.346932316011e+005 3.435657812674e+005 3.391430267148e+005 2.998617062532e+005 3.435565143992e+005 3.371356574614e+005 2.906335912308e+005 3.460069526600e+005 3.436973635057e+005 2.877394083124e+005 2.964803561577e+005 2.836334612917e+005 2.932365739179e+005 0.000000000000e+000 3.502716262408e+005 3.272373521666e+005 2.013070149190e+005 1.933431424207e+005 0.000000000000e+000 0.000000000000e+000 0.000000000000e+000 0.000000000000e+000 1.011387698758e+005 1.548276018382e+005 3.120089587417e+005 1.793527630490e+005 1.862641430998e+005 2.723258801182e+005 2.745196161745e+005 2.603076607371e+005 2.644911854545e+005 2.465634636017e+005 2.427253868317e+005 2.273166933981e+005 2.308851646828e+005 3.505278695903e+005 0.000000000000e+000 0.000000000000e+000 0.000000000000e+000 0.000000000000e+000 3.530456200952e+005 0.000000000000e+000 2.185957605254e+005 2.369583841820e+005 2.547868418109e+005 2.671810675937e+005 2.082853562552e+005 1.970438924226e+005 1.837888099394e+005 1.513018579390e+005 2.997652825666e+005 9.447987831856e+004 3.123841275897e+005 0.000000000000e+000 3.211252006090e+005 0.000000000000e+000 0.000000000000e+000 0.000000000000e+000 0.000000000000e+000 9.451038913312e+004 1.51304