<?xml version="1.0"?>
<VTKFile type="UnstructuredGrid" version="0.1" byte_order="LittleEndian">
  <UnstructuredGrid>
    <Piece NumberOfPoints="2604" NumberOfCells="4910">
      <Points>
        <DataArray type="Float64" NumberOfComponents="3" format="ascii">
          0.000000000000e+000 0.000000000000e+000 0.000000000000e+000
          2.000000000000e+002 0.000000000000e+000 0.000000000000e+000
          2.000000000000e+002 2.000000000000e+001 0.000000000000e+000
          0.000000000000e+000 2.000000000000e+001 0.000000000000e+000
          1.492537313427e+000 0.000000000000e+000 0.000000000000e+000
          2.985074626854e+000 0.000000000000e+000 0.000000000000e+000
          4.477611940281e+000 0.000000000000e+000 0.000000000000e+000
          5.970149253708e+000 0.000000000000e+000 0.000000000000e+000
          7.462686567135e+000 0.000000000000e+000 0.000000000000e+000
          8.955223880561e+000 0.000000000000e+000 0.000000000000e+000
          1.044776119399e+001 0.000000000000e+000 0.000000000000e+000
          1.194029850741e+001 0.000000000000e+000 0.000000000000e+000
          1.343283582084e+001 0.000000000000e+000 0.000000000000e+000
          1.492537313427e+001 0.000000000000e+000 0.000000000000e+000
          1.641791044770e+001 0.000000000000e+000 0.000000000000e+000
          1.791044776112e+001 0.000000000000e+000 0.000000000000e+000
          1.940298507455e+001 0.000000000000e+000 0.000000000000e+000
          2.089552238798e+001 0.000000000000e+000 0.000000000000e+000
          2.238805970141e+001 0.000000000000e+000 0.000000000000e+000
          2.388059701484e+001 0.000000000000e+000 0.000000000000e+000
          2.537313432826e+001 0.000000000000e+000 0.000000000000e+000
          2.686567164169e+001 0.000000000000e+000 0.000000000000e+000
          2.835820895511e+001 0.000000000000e+000 0.000000000000e+000
          2.985074626854e+001 0.000000000000e+000 0.000000000000e+000
          3.134328358196e+001 0.000000000000e+000 0.000000000000e+000
          3.283582089539e+001 0.000000000000e+000 0.000000000000e+000
          3.432835820881e+001 0.000000000000e+000 0.000000000000e+000
          3.582089552224e+001 0.000000000000e+000 0.000000000000e+000
          3.731343283566e+001 0.000000000000e+000 0.000000000000e+000
          3.880597014909e+001 0.000000000000e+000 0.000000000000e+000
          4.029850746251e+001 0.000000000000e+000 0.000000000000e+000
          4.179104477594e+001 0.000000000000e+000 0.000000000000e+000
          4.328358208936e+001 0.000000000000e+000 0.000000000000e+000
          4.477611940279e+001 0.000000000000e+000 0.000000000000e+000
          4.626865671621e+001 0.000000000000e+000 0.000000000000e+000
          4.776119402964e+001 0.000000000000e+000 0.000000000000e+000
          4.925373134306e+001 0.000000000000e+000 0.000000000000e+000
          5.074626865649e+001 0.000000000000e+000 0.000000000000e+000
          5.223880596991e+001 0.000000000000e+000 0.000000000000e+000
          5.373134328334e+001 0.000000000000e+000 0.000000000000e+000
          5.522388059676e+001 0.000000000000e+000 0.000000000000e+000
          5.671641791019e+001 0.000000000000e+000 0.000000000000e+000
          5.820895522361e+001 0.000000000000e+000 0.000000000000e+000
          5.970149253704e+001 0.000000000000e+000 0.000000000000e+000
          6.119402985046e+001 0.000000000000e+000 0.000000000000e+000
          6.268656716389e+001 0.000000000000e+000 0.000000000000e+000
          6.417910447732e+001 0.000000000000e+000 0.000000000000e+000
          6.567164179075e+001 0.000000000000e+000 0.000000000000e+000
          6.716417910418e+001 0.000000000000e+000 0.000000000000e+000
          6.865671641761e+001 0.000000000000e+000 0.000000000000e+000
          7.014925373104e+001 0.000000000000e+000 0.000000000000e+000
          7.164179104447e+001 0.000000000000e+000 0.000000000000e+000
          7.313432835790e+001 0.000000000000e+000 0.000000000000e+000
          7.462686567133e+001 0.000000000000e+000 0.000000000000e+000
          7.611940298476e+001 0.000000000000e+000 0.000000000000e+000
          7.761194029819e+001 0.000000000000e+000 0.000000000000e+000
          7.910447761162e+001 0.000000000000e+000 0.000000000000e+000
          8.059701492505e+001 0.000000000000e+000 0.000000000000e+000
          8.208955223848e+001 0.000000000000e+000 0.000000000000e+000
          8.358208955191e+001 0.000000000000e+000 0.000000000000e+000
          8.507462686534e+001 0.000000000000e+000 0.000000000000e+000
          8.656716417877e+001 0.000000000000e+000 0.000000000000e+000
          8.805970149220e+001 0.000000000000e+000 0.000000000000e+000
          8.955223880563e+001 0.000000000000e+000 0.000000000000e+000
          9.104477611907e+001 0.000000000000e+000 0.000000000000e+000
          9.253731343250e+001 0.000000000000e+000 0.000000000000e+000
          9.402985074593e+001 0.000000000000e+000 0.000000000000e+000
          9.552238805936e+001 0.000000000000e+000 0.000000000000e+000
          9.701492537279e+001 0.000000000000e+000 0.000000000000e+000
          9.850746268622e+001 0.000000000000e+000 0.000000000000e+000
          9.999999999965e+001 0.000000000000e+000 0.000000000000e+000
          1.014925373131e+002 0.000000000000e+000 0.000000000000e+000
          1.029850746265e+002 0.000000000000e+000 0.000000000000e+000
          1.044776119399e+002 0.000000000000e+000 0.000000000000e+000
          1.059701492534e+002 0.000000000000e+000 0.000000000000e+000
          1.074626865668e+002 0.000000000000e+000 0.000000000000e+000
          1.089552238802e+002 0.000000000000e+000 0.000000000000e+000
          1.104477611937e+002 0.000000000000e+000 0.000000000000e+000
          1.119402985071e+002 0.000000000000e+000 0.000000000000e+000
          1.134328358205e+002 0.000000000000e+000 0.000000000000e+000
          1.149253731340e+002 0.000000000000e+000 0.000000000000e+000
          1.164179104474e+002 0.000000000000e+000 0.000000000000e+000
          1.179104477608e+002 0.000000000000e+000 0.000000000000e+000
          1.194029850742e+002 0.000000000000e+000 0.000000000000e+000
          1.208955223877e+002 0.000000000000e+000 0.000000000000e+000
          1.223880597011e+002 0.000000000000e+000 0.000000000000e+000
          1.238805970145e+002 0.000000000000e+000 0.000000000000e+000
          1.253731343280e+002 0.000000000000e+000 0.000000000000e+000
          1.268656716414e+002 0.000000000000e+000 0.000000000000e+000
          1.283582089548e+002 0.000000000000e+000 0.000000000000e+000
          1.298507462683e+002 0.000000000000e+000 0.000000000000e+000
          1.313432835817e+002 0.000000000000e+000 0.000000000000e+000
          1.328358208952e+002 0.000000000000e+000 0.000000000000e+000
          1.343283582086e+002 0.000000000000e+000 0.000000000000e+000
          1.358208955220e+002 0.000000000000e+000 0.000000000000e+000
          1.373134328355e+002 0.000000000000e+000 0.000000000000e+000
          1.388059701489e+002 0.000000000000e+000 0.000000000000e+000
          1.402985074624e+002 0.000000000000e+000 0.000000000000e+000
          1.417910447758e+002 0.000000000000e+000 0.000000000000e+000
          1.432835820892e+002 0.000000000000e+000 0.000000000000e+000
          1.447761194027e+002 0.000000000000e+000 0.000000000000e+000
          1.462686567161e+002 0.000000000000e+000 0.000000000000e+000
          1.477611940296e+002 0.000000000000e+000 0.000000000000e+000
          1.492537313430e+002 0.000000000000e+000 0.000000000000e+000
          1.507462686564e+002 0.000000000000e+000 0.000000000000e+000
          1.522388059699e+002 0.000000000000e+000 0.000000000000e+000
          1.537313432833e+002 0.000000000000e+000 0.000000000000e+000
          1.552238805968e+002 0.000000000000e+000 0.000000000000e+000
          1.567164179102e+002 0.000000000000e+000 0.000000000000e+000
          1.582089552237e+002 0.000000000000e+000 0.000000000000e+000
          1.597014925371e+002 0.000000000000e+000 0.000000000000e+000
          1.611940298505e+002 0.000000000000e+000 0.000000000000e+000
          1.626865671640e+002 0.000000000000e+000 0.000000000000e+000
          1.641791044774e+002 0.000000000000e+000 0.000000000000e+000
          1.656716417909e+002 0.000000000000e+000 0.000000000000e+000
          1.671641791043e+002 0.000000000000e+000 0.000000000000e+000
          1.686567164177e+002 0.000000000000e+000 0.000000000000e+000
          1.701492537312e+002 0.000000000000e+000 0.000000000000e+000
          1.716417910446e+002 0.000000000000e+000 0.000000000000e+000
          1.731343283581e+002 0.000000000000e+000 0.000000000000e+000
          1.746268656715e+002 0.000000000000e+000 0.000000000000e+000
          1.761194029849e+002 0.000000000000e+000 0.000000000000e+000
          1.776119402984e+002 0.000000000000e+000 0.000000000000e+000
          1.791044776118e+002 0.000000000000e+000 0.000000000000e+000
          1.805970149253e+002 0.000000000000e+000 0.000000000000e+000
          1.820895522387e+002 0.000000000000e+000 0.000000000000e+000
          1.835820895521e+002 0.000000000000e+000 0.000000000000e+000
          1.850746268656e+002 0.000000000000e+000 0.000000000000e+000
          1.865671641790e+002 0.000000000000e+000 0.000000000000e+000
          1.880597014925e+002 0.000000000000e+000 0.000000000000e+000
          1.895522388059e+002 0.000000000000e+000 0.000000000000e+000
          1.910447761194e+002 0.000000000000e+000 0.000000000000e+000
          1.925373134328e+002 0.000000000000e+000 0.000000000000e+000
          1.940298507462e+002 0.000000000000e+000 0.000000000000e+000
          1.955223880597e+002 0.000000000000e+000 0.000000000000e+000
          1.970149253731e+002 0.000000000000e+000 0.000000000000e+000
          1.985074626866e+002 0.000000000000e+000 0.000000000000e+000
          2.000000000000e+002 1.428571428570e+000 0.000000000000e+000
          2.000000000000e+002 2.857142857140e+000 0.000000000000e+000
[...]
      <PointData Scalars="Capillary_Pressure">
        <DataArray type="Float64" Name="Capillary_Pressure" format="ascii">
          3.851889861669e+005 0.000000000000e+000 0.000000000000e+000 3.851913484731e+005 3.854177976315e+005 3.826793932727e+005 3.818175311656e+005 3.798835015720e+005 3.796105555024e+005 3.777131354863e+005 3.756837212156e+005 3.756078438972e+005 3.734367838022e+005 3.732687751145e+005 3.713971895685e+005 3.690233180230e+005 3.690622204911e+005 3.670440863948e+005 3.666365242320e+005 3.645309699020e+005 3.611328279761e+005 3.609303884886e+005 3.603658630904e+005 3.573583389324e+005 3.570253218971e+005 3.548388520146e+005 3.542163860303e+005 3.510729983725e+005 3.505754699841e+005 3.485095661327e+005 3.478755466201e+005 3.446743489986e+005 3.441514035108e+005 3.421738114049e+005 3.414412732064e+005 3.378381811765e+005 3.377602984511e+005 3.351511516270e+005 3.327586957596e+005 3.324784094858e+005 3.316884664236e+005 3.285255531207e+005 3.258586822628e+005 3.254882431673e+005 3.218309103591e+005 3.213642190942e+005 3.185323561842e+005 3.180510363103e+005 3.156131085479e+005 3.147096613785e+005 3.106214283002e+005 3.104368146789e+005 3.065814134094e+005 3.060288510551e+005 3.020640995652e+005 3.007076578178e+005 2.985224394237e+005 2.980638416170e+005 2.969399994234e+005 2.931494207717e+005 2.899272730861e+005 2.895634397437e+005 2.855179375227e+005 2.848160335061e+005 2.818983152563e+005 2.785236996627e+005 2.755137077928e+005 2.749016679117e+005 2.703496534761e+005 2.687547169733e+005 2.661428744197e+005 2.629943170285e+005 2.621449007637e+005 2.592701761192e+005 2.555374901625e+005 2.522084015501e+005 2.516701617846e+005 2.481286258418e+005 2.448876436794e+005 2.435822976065e+005 2.378768161222e+005 2.344939355857e+005 2.313628568451e+005 2.277572951019e+005 2.242268878148e+005 2.204992271866e+005 2.197776176096e+005 2.162678969457e+005 2.123861636660e+005 2.088469117117e+005 2.016217022438e+005 1.977514517027e+005 1.938343618438e+005 1.894702030228e+005 1.868336029849e+005 1.792533400609e+005 1.747319511661e+005 1.722510427553e+005 1.640899901550e+005 1.578569240345e+005 1.547852913967e+005 1.446368022484e+005 1.380911231221e+005 1.309976927544e+005 1.222091624084e+005 1.129686076787e+005 1.028679918584e+005 9.061542296798e+004 7.708464675863e+004 6.015945586719e+004 3.807922748969e+004 6.410769383402e+003 0.000000000000e+000 0.000000000000e+000 0.000000000000e+000 0.000000000000e+000 0.000000000000e+000 0.000000000000e+000 0.000000000000e+000 0.000000000000e+000 0.000000000000e+000 0.000000000000e+000 0.000000000000e+000 0.000000000000e+000 0.000000000000e+000 0.000000000000e+000 0.000000000000e+000 0.000000000000e+000 0.000000000000e+000 0.000000000000e+000 0.000000000000e+000 0.000000000000e+000 0.000000000000e+000 0.000000000000e+000 0.000000000000e+000 0.000000000000e+000 0.000000000000e+000 0.000000000000e+000 0.000000000000e+000 0.000000000000e+000 0.000000000000e+000 0.000000000000e+000 0.000000000000e+000 0.000000000000e+000 0.000000000000e+000 0.000000000000e+000 0.000000000000e+000 0.000000000000e+000 0.000000000000e+000 0.000000000000e+000 0.000000000000e+000 0.000000000000e+000 0.000000000000e+000 0.000000000000e+000 0.000000000000e+000 0.000000000000e+000 0.000000000000e+000 0.000000000000e+000 0.000000000000e+000 0.000000000000e+000 0.000000000000e+000 0.000000000000e+000 0.000000000000e+000 0.000000000000e+000 0.000000000000e+000 0.000000000000e+000 0.000000000000e+000 0.000000000000e+000 0.000000000000e+000 0.000000000000e+000 0.000000000000e+000 0.000000000000e+000 0.000000000000e+000 0.000000000000e+000 0.000000000000e+000 6.407734215768e+003 3.806729758179e+004 6.012835853798e+004 7.707632626747e+004 9.059982382203e+004 1.028715441215e+005 1.129898607225e+005 1.221973025380e+005 1.309953167448e+005 1.380843952969e+005 1.446291757481e+005 1.547822251800e+005 1.578486707957e+005 1.640721468169e+005 1.722446308727e+005 1.747284664551e+005 1.792605421767e+005 1.868222797212e+005 1.894666030675e+005 1.938240739311e+005 1.977341682593e+005 2.016066680605e+005 2.088382705130e+005 2.123924334660e+005 2.162736788925e+005 2.197754838735e+005 2.204995482859e+005 2.242342951933e+005 2.277692476251e+005 2.313532517737e+005 2.345002182478e+005 2.378531873569e+005 2.435748463763e+005 2.448713113859e+005 2.481348138462e+005 2.516550939146e+005 2.521971500621e+005 2.555243916929e+005 2.592577976105e+005 2.621596381172e+005 2.654973908629e+005 2.661435984953e+005 2.687381132239e+005 2.703254117867e+005 2.749146811073e+005 2.780907598859e+005 2.785110245764e+005 2.818321111776e+005 2.848215758936e+005 2.855225367120e+005 2.895612905452e+005 2.899350838380e+005 2.931794015281e+005 2.969372679405e+005 2.980677151981e+005 2.985386784010e+005 3.007276428075e+005 3.050728710183e+005 3.060493671991e+005 3.065816772520e+005 3.104448773191e+005 3.106640316191e+005 3.146913688789e+005 3.155825765662e+005 3.180397059046e+005 3.185152794568e+005 3.213442843172e+005 3.246085225985e+005 3.254884902962e+005 3.258445895124e+005 3.285217493012e+005 3.316900248133e+005 3.324813482919e+005 3.327506006073e+005 3.351523887608e+005 3.377612482289e+005 3.378360573088e+005 3.414387699121e+005 3.421699606758e+005 3.441490262130e+005 3.446775084663e+005 3.478731484969e+005 3.485085791067e+005 3.505746512176e+005 3.510669717087e+005 3.542178655082e+005 3.548332246776e+005 3.570252390145e+005 3.573624911110e+005 3.603660623105e+005 3.609329074397e+005 3.611408961231e+005 3.645208786472e+005 3.666332460476e+005 3.670446209149e+005 3.690708396408e+005 3.690136295041e+005 3.713713279028e+005 3.714300854123e+005 3.734535252352e+005 3.756054086953e+005 3.756758516065e+005 3.777203599319e+005 3.796166762308e+005 3.798969117762e+005 3.817769131925e+005 3.826820932934e+005 3.854173521156e+005 3.851911594521e+005 3.851887514027e+005 3.851920504191e+005 3.851910159891e+005 3.851881142612e+005 3.851895789648e+005 3.851901583252e+005 3.851879811271e+005 3.851887158364e+005 3.851910876007e+005 3.851900729918e+005 3.851881021473e+005 3.851886317987e+005 0.000000000000e+000 3.776959425676e+005 0.000000000000e+000 0.000000000000e+000 5.121098977293e+004 1.349304650492e+005 1.792908473879e+005 3.607241059129e+005 2.084619347307e+005 3.485431398294e+005 3.380244920468e+005 3.257547414721e+005 3.056866368035e+005 2.901756964743e+005 2.743803641432e+005 2.551597451611e+005 2.348433143579e+005 3.692580581077e+005 3.156017595656e+005 2.204829706641e+005 2.235102136024e+005 2.448659452795e+005 2.655081566636e+005 2.818144264721e+005 2.980709341704e+005 0.000000000000e+000 0.000000000000e+000 1.016567436987e+005 2.980662976970e+005 2.820096314158e+005 2.653510729733e+005 2.445021628026e+005 1.576639127023e+005 1.938135454838e+005 3.548479389527e+005 3.442225811894e+005 3.324106188359e+005 1.937597884517e+005 1.578315292899e+005 1.028500455792e+005 0.000000000000e+000 0.000000000000e+000 3.325051857450e+005 3.441533156142e+005 3.548252830402e+005 0.000000000000e+000 0.000000000000e+000 3.186322076252e+005 3.109870824939e+005 3.732650826474e+005 3.645222481686e+005 0.000000000000e+000 3.798912903225e+005 0.000000000000e+000 3.798998664432e+005 3.730265889837e+005 3.645671988360e+005 3.214931875068e+005 3.102028880626e+005 0.000000000000e+000 2.348360354921e+005 0.000000000000e+000 2.551555638201e+005 2.743708732412e+005 2.901594146423e+005 3.053125330184e+005 2.085131982811e+005 4.954313740783e+004 1.340370342029e+005 1.792501094927e+005 3.485794795400e+005 3.380913769490e+005 2.094483616083e+005 1.794052061128e+005 1.348517171990e+005 5.011028609670e+004 2.901755520093e+005 2.743638531793e+005 2.551789209009e+005 0.000000000000e+000 2.348200316657e+005 0.000000000000e+000 3.258211134206e+005 3.380455835841e+005 3.485731263598e+005 3.607266213715e+005 0.000000000000e+000 0.000000000000e+000 3.756749366824e+005 3.603555733051e+005 3.018877459737e+005 3.280187810854e+005 0.000000000000e+000 3.818321549961e+005 3.692437812690e+005 3.776599636384e+005 3.692605653565e+005 3.156435776603e+005 3.211167324103e+005 3.106883900610e+005 3.734467690328e+005 3.644924898528e+005 3.155739033520e+005 0.000000000000e+000 9.258763198555e+004 0.000000000000e+000 1.548974800854e+005 0.000000000000e+000 1.898975191747e+005 2.437743755606e+005 2.787019381562e+005 2.940915423799e+005 2.622730117586e+005 3.542333982809e+005 3.326974619955e+005 3.441849847803e+005 2.241102940582e+005 3.156097665964e+005 0.000000000000e+000 3.826690512063e+005 0.000000000000e+000 3.826650488970e+005 2.392500755651e+005 2.593775092617e+005 2.787183694178e+005 2.936014514951e+005 2.016436063418e+005 2.276044128611e+005 2.163355521666e+005 1.687623430797e+005 3.287199619548e+005 1.165428720570e+005 3.419600467011e+005 0.000000000000e+000 3.513579981883e+005 0.000000000000e+000 0.000000000000e+000 0.000000000000e+000 0.000000000000e+000 0.000000000000e+000 1.173540114846e+005 8.643661027502e+004 1.689018257572e+005 1.514743084669e+005 3.512959733203e+005 1.903264121259e+005 2.016617949362e+005 3.419138217302e+005 3.448599141894e+005 2.935819397792e+005 2.786995429604e+005 2.593114332977e+005 2.851438423056e+005 2.664895377639e+005 2.431922998458e+005 2.477802049371e+005 3.328022367422e+005 2.163169074627e+005 2.273514785122e+005 0.000000000000e+000 3.571944244285e+005 0.000000000000e+000 3.447882944690e+005 8.846256235057e+004 3.328858984863e+005 1.508738019816e+005 3.009308730004e+005 2.852786950886e+005 2.666287448895e+005 2.509550970108e+005 1.904864167917e+005 3.692392260397e+005 0.000000000000e+000 0.000000000000e+000 3.100460257948e+005 3.240557204182e+005 3.643382582915e+005 2.164340054311e+005 2.664799692332e+005 2.477176982542e+005 2.850944130075e+005 3.009120745570e+005 3.571654904049e+005 3.420091731677e+005 0.000000000000e+000 3.287483351575e+005 0.000000000000e+000 1.180003049600e+005 2.015302047894e+005 1.649743418483e+005 3.570314736661e+005 0.000000000000e+000 0.000000000000e+000 3.142027362334e+005 3.734392479156e+005 0.000000000000e+000 2.161334364341e+005 2.050256587061e+005 1.723603763312e+005 3.283440353200e+005 1.229741557733e+005 3.413951915894e+005 2.855831617767e+005 2.687889192144e+005 2.517377569108e+005 0.000000000000e+000 3.573580999562e+005 0.000000000000e+000 3.668212938173e+005 3.011529600027e+005 0.000000000000e+000 0.000000000000e+000 0.000000000000e+000 2.984164870395e+005 3.317732708905e+005 3.065105728241e+005 3.247456628546e+005 3.796255279229e+005 3.610957488167e+005 3.755721654152e+005 3.713105454964e+005 3.610920181594e+005 2.378803795871e+005 2.592719896016e+005 2.781184431157e+005 2.931912055742e+005 4.512688252147e+003 3.510764510919e+005 0.000000000000e+000 2.278223209672e+005 1.868506878523e+005 7.871886052586e+003 1.445233908668e+005 0.000000000000e+000 7.702402271075e+004 2.384383596272e+005 2.592932388974e+005 2.780616669403e+005 2.931394800320e+005 3.510092202512e+005 3.351227496469e+005 3.478881216914e+005 3.478862046102e+005 7.620523224519e+004 3.347011428473e+005 1.445393526945e+005 1.867599065441e+005 2.277965364616e+005 0.000000000000e+000 0.000000000000e+000 3.826668578188e+005 3.826738733471e+005 0.000000000000e+000 3.791838197904e+005 0.000000000000e+000 0.000000000000e+000 3.777598386492e+005 0.000000000000e+000 3.755882930241e+005 3.791945977213e+005 3.249357562452e+005 3.059202991715e+005 3.605365400436e+005 3.754959466625e+005 3.255422654105e+005 3.669316513109e+005 3.670749998852e+005 3.059414156362e+005 3.712031290739e+005 3.210570545593e+005 3.143362369476e+005 3.713625181177e+005 3.417194599681e+005 2.012095647829e+005 1.681748281211e+005 1.201616348843e+005 0.000000000000e+000 0.000000000000e+000 2.165658076701e+005 3.011787240103e+005 2.849579666212e+005 2.692648412729e+005 2.513903051477e+005 3.184461118822e+005 3.670097632345e+005 3.112341091786e+005 3.180170841414e+005 0.000000000000e+000 0.000000000000e+000 3.569117817233e+005 3.311581659527e+005 3.777898243924e+005 3.798489572979e+005 0.000000000000e+000 3.712594444980e+005 2.349496824909e+005 2.581478382935e+005 2.749624213425e+005 2.899657771217e+005 2.088679973704e+005 2.092572018448e+005 2.312779310494e+005 1.746693728155e+005 1.323485736410e+005 3.258747716828e+005 3.651141139610e+004 3.381983438731e+005 0.000000000000e+000 3.505964936465e+005 0.000000000000e+000 0.000000000000e+000 3.613681071896e+004 1.322845110955e+005 1.758072259094e+005 3.506127134442e+005 3.382068370246e+005 2.899404879011e+005 2.749751206025e+005 2.581612067249e+005 0.000000000000e+000 3.603478159439e+005 3.019874066352e+005 0.000000000000e+000 0.000000000000e+000 0.000000000000e+000 3.575582105026e+005 3.611979526642e+005 3.755745692127e+005 3.146279347352e+005 0.000000000000e+000 0.000000000000e+000 1.079335061786e+005 1.612891374717e+005 1.980070547331e+005 3.549098359003e+005 3.420998974699e+005 3.320419189966e+005 2.449066383406e+005 2.820182956899e+005 2.984887870862e+005 2.661134604698e+005 2.201587295821e+005 0.000000000000e+000 0.000000000000e+000 0.000000000000e+000 0.000000000000e+000 1.353632409464e+005 1.791398194691e+005 3.381199801847e+005 2.900107835306e+005 2.740663998000e+005 2.549581461642e+005 3.820532325304e+005 3.181022406699e+005 2.091909600634e+005 2.088717332514e+005 3.053289245294e+005 0.000000000000e+000 3.852606852272e+005 3.283500019544e+005 3.009009085296e+005 1.938615331158e+005 1.579107472115e+005 1.029048747299e+005 0.000000000000e+000 0.000000000000e+000 3.324563229958e+005 3.441338617772e+005 3.548367018514e+005 2.654966390936e+005 2.448767276199e+005 2.980681284273e+005 2.818943992633e+005 0.000000000000e+000 0.000000000000e+000 2.818866526218e+005 2.654801923311e+005 1.028546998036e+005 2.448798467733e+005 1.578621985475e+005 1.937861649244e+005 3.441568332776e+005 2.204524396762e+005 2.205111123817e+005 3.668002377639e+005 3.219464181692e+005 3.690211518810e+005 2.988748192283e+005 3.154119605408e+005 0.000000000000e+000 0.000000000000e+000 3.104484487160e+005 3.069658944368e+005 3.150445055037e+005 2.046405692063e+005 2.354359879587e+005 2.314022414713e+005 2.119715598750e+005 2.514789965480e+005 2.699146326392e+005 2.891530648822e+005 1.820549365412e+005 3.483061673722e+005 3.374279202246e+005 0.000000000000e+000 6.805050111872e+004 1.412273572475e+005 0.000000000000e+000 3.483035073677e+005 6.811130934794e+004 3.374240854699e+005 2.891507662636e+005 2.698929793988e+005 2.518633963088e+005 1.412334288187e+005 1.820623592410e+005 3.821475308052e+005 3.754491704023e+005 0.000000000000e+000 3.821404755609e+005 2.347994669935e+005 2.348871978718e+005 3.485836275228e+005 3.485897999847e+005 4.906752195753e+004 4.955107958966e+004 0.000000000000e+000 3.711600631170e+005 3.776929729584e+005 3.603318694914e+005 3.692724920946e+005 0.000000000000e+000 3.852630264677e+005 0.000000000000e+000 3.852612613743e+005 3.732857221129e+005 0.000000000000e+000 0.000000000000e+000 1.794377260702e+005 1.348765034342e+005 3.380435609741e+005 2.550469033378e+005 2.902124216207e+005 2.744200717939e+005 0.000000000000e+000 3.646268933737e+005 3.645840676253e+005 3.755884252329e+005 3.063118386545e+005 3.250937014633e+005 3.756099472873e+005 3.609402044657e+005 3.547348860210e+005 3.212012097194e+005 3.640765471742e+005 0.000000000000e+000 0.000000000000e+000 3.241247349887e+005 3.067177551596e+005 0.000000000000e+000 3.259888306781e+005 3.065758781382e+005 3.105296221893e+005 0.000000000000e+000 3.571907191162e+005 0.000000000000e+000 2.855769711731e+005 2.687998043003e+005 2.517318516053e+005 2.129276123286e+005 3.419390817691e+005 1.166108162989e+005 3.310884206848e+005 1.688206513954e+005 2.051253255035e+005 0.000000000000e+000 3.670650813556e+005 3.113213971401e+005 3.178850716739e+005 3.258356522387e+005 3.713928143781e+005 0.000000000000e+000 3.852634285633e+005 0.000000000000e+000 3.854044614977e+005 3.778281544091e+005 3.607060424407e+005 3.156965666465e+005 3.211873023548e+005 0.000000000000e+000 3.327016501070e+005 2.976792038651e+005 3.645956386656e+005 3.062418985011e+005 3.691430128708e+005 1.903909000679e+005 1.503499537117e+005 8.736403249051e+004 3.329332813767e+005 3.448623006784e+005 7.526583965162e+004 0.000000000000e+000 1.444261570241e+005 1.004829990462e+004 1.866427896917e+005 3.479239373366e+005 3.347348839838e+005 3.505121179097e+005 2.930974161580e+005 2.591873415479e+005 2.754187999858e+005 2.386337347618e+005 0.000000000000e+000 0.000000000000e+000 3.513176003725e+005 2.274471476280e+005 2.936761003333e+005 2.788022425022e+005 2.594458445444e+005 2.432174952408e+005 2.278853910060e+005 2.204853737347e+005 2.448694927921e+005 2.818989472620e+005 2.655207997143e+005 2.980715107136e+005 0.000000000000e+000 0.000000000000e+000 1.028142872173e+005 1.938085507820e+005 1.578257315497e+005 3.548291499939e+005 3.441551589673e+005 3.324813643072e+005 3.251468667311e+005 3.610830176375e+005 0.000000000000e+000 3.778219590547e+005 2.280319567870e+005 2.385018465440e+005 2.590860630975e+005 2.778404941951e+005 2.929859503783e+005 1.545111265373e+004 0.000000000000e+000 3.504148653666e+005 7.356936590291e+004 1.442929991686e+005 1.864930400685e+005 3.481151619211e+005 3.347835423010e+005 3.152557416542e+005 0.000000000000e+000 3.181613744640e+005 0.000000000000e+000 2.236430870473e+005 2.203856445537e+005 2.446693061420e+005 2.651750307458e+005 2.816534745797e+005 2.977568560138e+005 0.000000000000e+000 0.000000000000e+000 1.042144523794e+005 1.616686537767e+005 1.933676796437e+005 3.440483091346e+005 1.939365549177e+005 2.817712320446e+005 2.631294381583e+005 2.447182607624e+005 1.579603303206e+005 1.029490003168e+005 3.324205700911e+005 0.000000000000e+000 3.441119506274e+005 0.000000000000e+000 3.548338306245e+005 3.692572850523e+005 0.000000000000e+000 3.544417974254e+005 0.000000000000e+000 2.787446069800e+005 2.438364737913e+005 2.621440850900e+005 2.941208930755e+005 3.440803322121e+005 9.369623553633e+004 3.323986265547e+005 1.536796404639e+005 1.901166830423e+005 2.238951560111e+005 3.777310962758e+005 0.000000000000e+000 3.852645378149e+005 0.000000000000e+000 0.000000000000e+000 0.000000000000e+000 3.183205614274e+005 3.114781500881e+005 3.647411535808e+005 3.547714510629e+005 0.000000000000e+000 3.773382552656e+005 0.000000000000e+000 0.000000000000e+000 3.608559467285e+005 2.051942762987e+005 1.724937726307e+005 3.284427680156e+005 1.264984809666e+005 3.413385080493e+005 2.516396733599e+005 2.687970992307e+005 2.855104276439e+005 2.129377229923e+005 0.000000000000e+000 3.574445109644e+005 0.000000000000e+000 3.258502543515e+005 3.053969626574e+005 3.185577934795e+005 3.734091515818e+005 3.755724264698e+005 0.000000000000e+000 3.818602347201e+005 0.000000000000e+000 3.818612130306e+005 2.976316190078e+005 3.326852791492e+005 3.009089021289e+005 3.712936248285e+005 0.000000000000e+000 3.820606298125e+005 3.215531816888e+005 3.109152883419e+005 3.186604780479e+005 3.647643222231e+005 3.733077086635e+005 3.691013538515e+005 3.288520020193e+005 3.733137863378e+005 3.671067066648e+005 3.184683946539e+005 3.756855043638e+005 3.734962466375e+005 3.151607272638e+005 3.245261878988e+005 3.107378520109e+005 3.212727221882e+005 0.000000000000e+000 3.796225333814e+005 3.573093988050e+005 2.200954912721e+005 2.120413131892e+005 0.000000000000e+000 0.000000000000e+000 0.000000000000e+000 0.000000000000e+000 1.230685689236e+005 1.724392367547e+005 3.413541640764e+005 1.974209550598e+005 2.045813643222e+005 2.984920879467e+005 3.010337050731e+005 2.847396271496e+005 2.890907996925e+005 2.698188496328e+005 2.656798068426e+005 2.481291830223e+005 2.521826174419e+005 3.798839926227e+005 0.000000000000e+000 0.000000000000e+000 0.000000000000e+000 0.000000000000e+000 3.821736495104e+005 0.000000000000e+000 2.390705033175e+005 2.592491733881e+005 2.786108822047e+005 2.929066527708e+005 2.276138333781e+005 2.158767839287e+005 2.017875456086e+005 1.689795459807e+005 3.286211880526e+005 1.174134706046e+005 3.418773875535e+005 0.000000000000e+000 3.512857103951e+005 0.000000000000e+000 0.000000000000e+000 0.000000000000e+000 0.000000000000e+000 1.174352702931e+005 1.68978