<?xml version="1.0"?>
<VTKFile type="UnstructuredGrid" version="0.1" byte_order="LittleEndian">
  <UnstructuredGrid>
    <Piece NumberOfPoints="2604" NumberOfCells="4910">
      <Points>
        <DataArray type="Float64" NumberOfComponents="3" format="ascii">
          0.000000000000e+000 0.000000000000e+000 0.000000000000e+000
          2.000000000000e+002 0.000000000000e+000 0.000000000000e+000
          2.000000000000e+002 2.000000000000e+001 0.000000000000e+000
          0.000000000000e+000 2.000000000000e+001 0.000000000000e+000
          1.492537313427e+000 0.000000000000e+000 0.000000000000e+000
          2.985074626854e+000 0.000000000000e+000 0.000000000000e+000
          4.477611940281e+000 0.000000000000e+000 0.000000000000e+000
          5.970149253708e+000 0.000000000000e+000 0.000000000000e+000
          7.462686567135e+000 0.000000000000e+000 0.000000000000e+000
          8.955223880561e+000 0.000000000000e+000 0.000000000000e+000
          1.044776119399e+001 0.000000000000e+000 0.000000000000e+000
          1.194029850741e+001 0.000000000000e+000 0.000000000000e+000
          1.343283582084e+001 0.000000000000e+000 0.000000000000e+000
          1.492537313427e+001 0.000000000000e+000 0.000000000000e+000
          1.641791044770e+001 0.000000000000e+000 0.000000000000e+000
          1.791044776112e+001 0.000000000000e+000 0.000000000000e+000
          1.940298507455e+001 0.000000000000e+000 0.000000000000e+000
          2.089552238798e+001 0.000000000000e+000 0.000000000000e+000
          2.238805970141e+001 0.000000000000e+000 0.000000000000e+000
          2.388059701484e+001 0.000000000000e+000 0.000000000000e+000
          2.537313432826e+001 0.000000000000e+000 0.000000000000e+000
          2.686567164169e+001 0.000000000000e+000 0.000000000000e+000
          2.835820895511e+001 0.000000000000e+000 0.000000000000e+000
          2.985074626854e+001 0.000000000000e+000 0.000000000000e+000
          3.134328358196e+001 0.000000000000e+000 0.000000000000e+000
          3.283582089539e+001 0.000000000000e+000 0.000000000000e+000
          3.432835820881e+001 0.000000000000e+000 0.000000000000e+000
          3.582089552224e+001 0.000000000000e+000 0.000000000000e+000
          3.731343283566e+001 0.000000000000e+000 0.000000000000e+000
          3.880597014909e+001 0.000000000000e+000 0.000000000000e+000
          4.029850746251e+001 0.000000000000e+000 0.000000000000e+000
          4.179104477594e+001 0.000000000000e+000 0.000000000000e+000
          4.328358208936e+001 0.000000000000e+000 0.000000000000e+000
          4.477611940279e+001 0.000000000000e+000 0.000000000000e+000
          4.626865671621e+001 0.000000000000e+000 0.000000000000e+000
          4.776119402964e+001 0.000000000000e+000 0.000000000000e+000
          4.925373134306e+001 0.000000000000e+000 0.000000000000e+000
          5.074626865649e+001 0.000000000000e+000 0.000000000000e+000
          5.223880596991e+001 0.000000000000e+000 0.000000000000e+000
          5.373134328334e+001 0.000000000000e+000 0.000000000000e+000
          5.522388059676e+001 0.000000000000e+000 0.000000000000e+000
          5.671641791019e+001 0.000000000000e+000 0.000000000000e+000
          5.820895522361e+001 0.000000000000e+000 0.000000000000e+000
          5.970149253704e+001 0.000000000000e+000 0.000000000000e+000
          6.119402985046e+001 0.000000000000e+000 0.000000000000e+000
          6.268656716389e+001 0.000000000000e+000 0.000000000000e+000
          6.417910447732e+001 0.000000000000e+000 0.000000000000e+000
          6.567164179075e+001 0.000000000000e+000 0.000000000000e+000
          6.716417910418e+001 0.000000000000e+000 0.000000000000e+000
          6.865671641761e+001 0.000000000000e+000 0.000000000000e+000
          7.014925373104e+001 0.000000000000e+000 0.000000000000e+000
          7.164179104447e+001 0.000000000000e+000 0.000000000000e+000
          7.313432835790e+001 0.000000000000e+000 0.000000000000e+000
          7.462686567133e+001 0.000000000000e+000 0.000000000000e+000
          7.611940298476e+001 0.000000000000e+000 0.000000000000e+000
          7.761194029819e+001 0.000000000000e+000 0.000000000000e+000
          7.910447761162e+001 0.000000000000e+000 0.000000000000e+000
          8.059701492505e+001 0.000000000000e+000 0.000000000000e+000
          8.208955223848e+001 0.000000000000e+000 0.000000000000e+000
          8.358208955191e+001 0.000000000000e+000 0.000000000000e+000
          8.507462686534e+001 0.000000000000e+000 0.000000000000e+000
          8.656716417877e+001 0.000000000000e+000 0.000000000000e+000
          8.805970149220e+001 0.000000000000e+000 0.000000000000e+000
          8.955223880563e+001 0.000000000000e+000 0.000000000000e+000
          9.104477611907e+001 0.000000000000e+000 0.000000000000e+000
          9.253731343250e+001 0.000000000000e+000 0.000000000000e+000
          9.402985074593e+001 0.000000000000e+000 0.000000000000e+000
          9.552238805936e+001 0.000000000000e+000 0.000000000000e+000
          9.701492537279e+001 0.000000000000e+000 0.000000000000e+000
          9.850746268622e+001 0.000000000000e+000 0.000000000000e+000
          9.999999999965e+001 0.000000000000e+000 0.000000000000e+000
          1.014925373131e+002 0.000000000000e+000 0.000000000000e+000
          1.029850746265e+002 0.000000000000e+000 0.000000000000e+000
          1.044776119399e+002 0.000000000000e+000 0.000000000000e+000
          1.059701492534e+002 0.000000000000e+000 0.000000000000e+000
          1.074626865668e+002 0.000000000000e+000 0.000000000000e+000
          1.089552238802e+002 0.000000000000e+000 0.000000000000e+000
          1.104477611937e+002 0.000000000000e+000 0.000000000000e+000
          1.119402985071e+002 0.000000000000e+000 0.000000000000e+000
          1.134328358205e+002 0.000000000000e+000 0.000000000000e+000
          1.149253731340e+002 0.000000000000e+000 0.000000000000e+000
          1.164179104474e+002 0.000000000000e+000 0.000000000000e+000
          1.179104477608e+002 0.000000000000e+000 0.000000000000e+000
          1.194029850742e+002 0.000000000000e+000 0.000000000000e+000
          1.208955223877e+002 0.000000000000e+000 0.000000000000e+000
          1.223880597011e+002 0.000000000000e+000 0.000000000000e+000
          1.238805970145e+002 0.000000000000e+000 0.000000000000e+000
          1.253731343280e+002 0.000000000000e+000 0.000000000000e+000
          1.268656716414e+002 0.000000000000e+000 0.000000000000e+000
          1.283582089548e+002 0.000000000000e+000 0.000000000000e+000
          1.298507462683e+002 0.000000000000e+000 0.000000000000e+000
          1.313432835817e+002 0.000000000000e+000 0.000000000000e+000
          1.328358208952e+002 0.000000000000e+000 0.000000000000e+000
          1.343283582086e+002 0.000000000000e+000 0.000000000000e+000
          1.358208955220e+002 0.000000000000e+000 0.000000000000e+000
          1.373134328355e+002 0.000000000000e+000 0.000000000000e+000
          1.388059701489e+002 0.000000000000e+000 0.000000000000e+000
          1.402985074624e+002 0.000000000000e+000 0.000000000000e+000
          1.417910447758e+002 0.000000000000e+000 0.000000000000e+000
          1.432835820892e+002 0.000000000000e+000 0.000000000000e+000
          1.447761194027e+002 0.000000000000e+000 0.000000000000e+000
          1.462686567161e+002 0.000000000000e+000 0.000000000000e+000
          1.477611940296e+002 0.000000000000e+000 0.000000000000e+000
          1.492537313430e+002 0.000000000000e+000 0.000000000000e+000
          1.507462686564e+002 0.000000000000e+000 0.000000000000e+000
          1.522388059699e+002 0.000000000000e+000 0.000000000000e+000
          1.537313432833e+002 0.000000000000e+000 0.000000000000e+000
          1.552238805968e+002 0.000000000000e+000 0.000000000000e+000
          1.567164179102e+002 0.000000000000e+000 0.000000000000e+000
          1.582089552237e+002 0.000000000000e+000 0.000000000000e+000
          1.597014925371e+002 0.000000000000e+000 0.000000000000e+000
          1.611940298505e+002 0.000000000000e+000 0.000000000000e+000
          1.626865671640e+002 0.000000000000e+000 0.000000000000e+000
          1.641791044774e+002 0.000000000000e+000 0.000000000000e+000
          1.656716417909e+002 0.000000000000e+000 0.000000000000e+000
          1.671641791043e+002 0.000000000000e+000 0.000000000000e+000
          1.686567164177e+002 0.000000000000e+000 0.000000000000e+000
          1.701492537312e+002 0.000000000000e+000 0.000000000000e+000
          1.716417910446e+002 0.000000000000e+000 0.000000000000e+000
          1.731343283581e+002 0.000000000000e+000 0.000000000000e+000
          1.746268656715e+002 0.000000000000e+000 0.000000000000e+000
          1.761194029849e+002 0.000000000000e+000 0.000000000000e+000
          1.776119402984e+002 0.000000000000e+000 0.000000000000e+000
          1.791044776118e+002 0.000000000000e+000 0.000000000000e+000
          1.805970149253e+002 0.000000000000e+000 0.000000000000e+000
          1.820895522387e+002 0.000000000000e+000 0.000000000000e+000
          1.835820895521e+002 0.000000000000e+000 0.000000000000e+000
          1.850746268656e+002 0.000000000000e+000 0.000000000000e+000
          1.865671641790e+002 0.000000000000e+000 0.000000000000e+000
          1.880597014925e+002 0.000000000000e+000 0.000000000000e+000
          1.895522388059e+002 0.000000000000e+000 0.000000000000e+000
          1.910447761194e+002 0.000000000000e+000 0.000000000000e+000
          1.925373134328e+002 0.000000000000e+000 0.000000000000e+000
          1.940298507462e+002 0.000000000000e+000 0.000000000000e+000
          1.955223880597e+002 0.000000000000e+000 0.000000000000e+000
          1.970149253731e+002 0.000000000000e+000 0.000000000000e+000
          1.985074626866e+002 0.000000000000e+000 0.000000000000e+000
          2.000000000000e+002 1.428571428570e+000 0.000000000000e+000
          2.000000000000e+002 2.857142857140e+000 0.000000000000e+000
[...]
      <PointData Scalars="Capillary_Pressure">
        <DataArray type="Float64" Name="Capillary_Pressure" format="ascii">
          3.845373905130e+005 0.000000000000e+000 0.000000000000e+000 3.845398707076e+005 3.847674957820e+005 3.820215923143e+005 3.811595734152e+005 3.792219048473e+005 3.789488630529e+005 3.770481670494e+005 3.750162424602e+005 3.749406295530e+005 3.727669355641e+005 3.725997374865e+005 3.707318676842e+005 3.683546445854e+005 3.683915392554e+005 3.663724760045e+005 3.659669408304e+005 3.638596991069e+005 3.604573373318e+005 3.602589307388e+005 3.596962072273e+005 3.566859902624e+005 3.563567100644e+005 3.541696196973e+005 3.535507294091e+005 3.504051091569e+005 3.499119564335e+005 3.478463291950e+005 3.472174830482e+005 3.440145140720e+005 3.434956842901e+005 3.415194516198e+005 3.407927909700e+005 3.371863701148e+005 3.371172036278e+005 3.345089466099e+005 3.321159433261e+005 3.318437175880e+005 3.310610612978e+005 3.278953588755e+005 3.252356544999e+005 3.248677717371e+005 3.212153273501e+005 3.207529187551e+005 3.179202381602e+005 3.174498310885e+005 3.150149638247e+005 3.141176995161e+005 3.100302180890e+005 3.098535154387e+005 3.059994992093e+005 3.054558679547e+005 3.014903519126e+005 3.001445567206e+005 2.979625633894e+005 2.975138671137e+005 2.963976963683e+005 2.926097814088e+005 2.893885545481e+005 2.890368296857e+005 2.849963128371e+005 2.842973287599e+005 2.813881746920e+005 2.780181314470e+005 2.750119830787e+005 2.744112088657e+005 2.698580650371e+005 2.682738984616e+005 2.656652851011e+005 2.625223381932e+005 2.616866016487e+005 2.588170656703e+005 2.550882514706e+005 2.517618256739e+005 2.512367775248e+005 2.477008147286e+005 2.444647081588e+005 2.431722076535e+005 2.374657099422e+005 2.340843012288e+005 2.309649389811e+005 2.273611902669e+005 2.238377190903e+005 2.201139675422e+005 2.194039936399e+005 2.159007846893e+005 2.120261025595e+005 2.084898021089e+005 2.012617312110e+005 1.973982179290e+005 1.934889046200e+005 1.891239191282e+005 1.864960799794e+005 1.789111033947e+005 1.743925857096e+005 1.719206244688e+005 1.637524038499e+005 1.575168354367e+005 1.544519966976e+005 1.442880240946e+005 1.377361805757e+005 1.306345254269e+005 1.218290557510e+005 1.125670837983e+005 1.024373267873e+005 9.013737982736e+004 7.653866033794e+004 5.949980886851e+004 3.721776216675e+004 5.262101655188e+003 0.000000000000e+000 0.000000000000e+000 0.000000000000e+000 0.000000000000e+000 0.000000000000e+000 0.000000000000e+000 0.000000000000e+000 0.000000000000e+000 0.000000000000e+000 0.000000000000e+000 0.000000000000e+000 0.000000000000e+000 0.000000000000e+000 0.000000000000e+000 0.000000000000e+000 0.000000000000e+000 0.000000000000e+000 0.000000000000e+000 0.000000000000e+000 0.000000000000e+000 0.000000000000e+000 0.000000000000e+000 0.000000000000e+000 0.000000000000e+000 0.000000000000e+000 0.000000000000e+000 0.000000000000e+000 0.000000000000e+000 0.000000000000e+000 0.000000000000e+000 0.000000000000e+000 0.000000000000e+000 0.000000000000e+000 0.000000000000e+000 0.000000000000e+000 0.000000000000e+000 0.000000000000e+000 0.000000000000e+000 0.000000000000e+000 0.000000000000e+000 0.000000000000e+000 0.000000000000e+000 0.000000000000e+000 0.000000000000e+000 0.000000000000e+000 0.000000000000e+000 0.000000000000e+000 0.000000000000e+000 0.000000000000e+000 0.000000000000e+000 0.000000000000e+000 0.000000000000e+000 0.000000000000e+000 0.000000000000e+000 0.000000000000e+000 0.000000000000e+000 0.000000000000e+000 0.000000000000e+000 0.000000000000e+000 0.000000000000e+000 0.000000000000e+000 0.000000000000e+000 0.000000000000e+000 5.261347048568e+003 3.720651051221e+004 5.946816920472e+004 7.653073357481e+004 9.012105289152e+004 1.024409883104e+005 1.125887356204e+005 1.218171230617e+005 1.306320776146e+005 1.377292870867e+005 1.442797329284e+005 1.544493534906e+005 1.575086433344e+005 1.637336361623e+005 1.719143459356e+005 1.743886389921e+005 1.789202227521e+005 1.864837397434e+005 1.891207247521e+005 1.934778905578e+005 1.973812101294e+005 2.012503564745e+005 2.084808799055e+005 2.120328374347e+005 2.159073733454e+005 2.194011901002e+005 2.201164503516e+005 2.238441084205e+005 2.273746389345e+005 2.309557407902e+005 2.340919037337e+005 2.374396514282e+005 2.431654906769e+005 2.444492965115e+005 2.477084679776e+005 2.512213761310e+005 2.517511173291e+005 2.550758185512e+005 2.588039369409e+005 2.617015635784e+005 2.650317192560e+005 2.656669314627e+005 2.682579886196e+005 2.698326456069e+005 2.744242233394e+005 2.775953197089e+005 2.780072601805e+005 2.813206412366e+005 2.843050860782e+005 2.850025269312e+005 2.890324985013e+005 2.893968146318e+005 2.926404604151e+005 2.963954283936e+005 2.975168860527e+005 2.979801435312e+005 3.001622452645e+005 3.045087100421e+005 3.054758799620e+005 3.059991886811e+005 3.098635267066e+005 3.100739101751e+005 3.140998972325e+005 3.149837637062e+005 3.174399659427e+005 3.179056336740e+005 3.207315584655e+005 3.239978331052e+005 3.248685044275e+005 3.252193960236e+005 3.278933958058e+005 3.310610432582e+005 3.318472821624e+005 3.321072281995e+005 3.345095459410e+005 3.371184728540e+005 3.371837630008e+005 3.407908680060e+005 3.415155098249e+005 3.434934537734e+005 3.440176151685e+005 3.472150233466e+005 3.478453115863e+005 3.499111764145e+005 3.503988308999e+005 3.535526228116e+005 3.541638915798e+005 3.563562501879e+005 3.566903491846e+005 3.596968265408e+005 3.602605013202e+005 3.604648936874e+005 3.638494244799e+005 3.659634603166e+005 3.663723735393e+005 3.684005071604e+005 3.683435269838e+005 3.706978339939e+005 3.707566359178e+005 3.727827938004e+005 3.749394834096e+005 3.750066243335e+005 3.770560945318e+005 3.789548174409e+005 3.792350826965e+005 3.811190735189e+005 3.820247078039e+005 3.847670021392e+005 3.845400732490e+005 3.845376922692e+005 3.845407422605e+005 3.845398690945e+005 3.845364310712e+005 3.845383202615e+005 3.845391037818e+005 3.845365072293e+005 3.845373343873e+005 3.845402864741e+005 3.845384936490e+005 3.845370737371e+005 3.845373851255e+005 0.000000000000e+000 3.770317078159e+005 0.000000000000e+000 0.000000000000e+000 5.047565115563e+004 1.345724360032e+005 1.789555027565e+005 3.600535894576e+005 2.080993511924e+005 3.478782998581e+005 3.373785462044e+005 3.251336814568e+005 3.051182207635e+005 2.896467003259e+005 2.738950310895e+005 2.547162726760e+005 2.344416902654e+005 3.685861134281e+005 3.150031329025e+005 2.200983846602e+005 2.231324629635e+005 2.444425666555e+005 2.650476330971e+005 2.813015319047e+005 2.975211789853e+005 0.000000000000e+000 0.000000000000e+000 1.012216517023e+005 2.975158181011e+005 2.815015249763e+005 2.648865850182e+005 2.440763023326e+005 1.573248366270e+005 1.934628014974e+005 3.541785789648e+005 3.435652909757e+005 3.317774014744e+005 1.934153711680e+005 1.574914985837e+005 1.024190459729e+005 0.000000000000e+000 0.000000000000e+000 3.318699243839e+005 3.434977317013e+005 3.541561915330e+005 0.000000000000e+000 0.000000000000e+000 3.180206816618e+005 3.103994206313e+005 3.725946254341e+005 3.638510649475e+005 0.000000000000e+000 3.792293279166e+005 0.000000000000e+000 3.792384916062e+005 3.723577586430e+005 3.638949128765e+005 3.208800843299e+005 3.096221275306e+005 0.000000000000e+000 2.344368658279e+005 0.000000000000e+000 2.547123791321e+005 2.738856188115e+005 2.896300883863e+005 3.047458095009e+005 2.081492349656e+005 4.879252918723e+004 1.336777875712e+005 1.789171447267e+005 3.479130607328e+005 3.374438215818e+005 2.090862304207e+005 1.790710590830e+005 1.344941705510e+005 4.936457074171e+004 2.896467326038e+005 2.738776246717e+005 2.547361627815e+005 0.000000000000e+000 2.344168467970e+005 0.000000000000e+000 3.251991851536e+005 3.373973254586e+005 3.479068186323e+005 3.600565663527e+005 0.000000000000e+000 0.000000000000e+000 3.750061653109e+005 3.596872041570e+005 3.013167439021e+005 3.273955770754e+005 0.000000000000e+000 3.811749609846e+005 3.685718988244e+005 3.769955498173e+005 3.685892835750e+005 3.150363184687e+005 3.205142655468e+005 3.101042554113e+005 3.727765612767e+005 3.638236127137e+005 3.149759747328e+005 0.000000000000e+000 9.211882286875e+004 0.000000000000e+000 1.545635322834e+005 0.000000000000e+000 1.895535728654e+005 2.433561096030e+005 2.782062213931e+005 2.935444888500e+005 2.618202834551e+005 3.535676582732e+005 3.320555071413e+005 3.435240158881e+005 2.237229492680e+005 3.150136612575e+005 0.000000000000e+000 3.820114947685e+005 0.000000000000e+000 3.820079283936e+005 2.388333078037e+005 2.589068431803e+005 2.782129452329e+005 2.930569647105e+005 2.012918562786e+005 2.272150968449e+005 2.159631248466e+005 1.684325278581e+005 3.280901438513e+005 1.161506048081e+005 3.413080534187e+005 0.000000000000e+000 3.506881852012e+005 0.000000000000e+000 0.000000000000e+000 0.000000000000e+000 0.000000000000e+000 0.000000000000e+000 1.169639757804e+005 8.593804281639e+004 1.685707021932e+005 1.511363605545e+005 3.506268982128e+005 1.899846386851e+005 2.013095635202e+005 3.412626734606e+005 3.441953580792e+005 2.930335874812e+005 2.781960099254e+005 2.588493771643e+005 2.846234889569e+005 2.660097393449e+005 2.427853255815e+005 2.473451797313e+005 3.321600835144e+005 2.159456573411e+005 2.269659981682e+005 0.000000000000e+000 3.565247778190e+005 0.000000000000e+000 3.441248972479e+005 8.797566634897e+004 3.322440119407e+005 1.505315192625e+005 3.003703146429e+005 2.847597576723e+005 2.661494530274e+005 2.505272138709e+005 1.901482452653e+005 3.685672741120e+005 0.000000000000e+000 0.000000000000e+000 3.094669078701e+005 3.234470380794e+005 3.636685120483e+005 2.160615664778e+005 2.660037467463e+005 2.472774194438e+005 2.845713584275e+005 3.003520698417e+005 3.564962162412e+005 3.413550968893e+005 0.000000000000e+000 3.281144233661e+005 0.000000000000e+000 1.176164225488e+005 2.011817983572e+005 1.646317494111e+005 3.563621869507e+005 0.000000000000e+000 0.000000000000e+000 3.136169623291e+005 3.727694067685e+005 0.000000000000e+000 2.157693797922e+005 2.046788131506e+005 1.720295894635e+005 3.277159196212e+005 1.225960255419e+005 3.407459001986e+005 2.850596943385e+005 2.683039042353e+005 2.513064741110e+005 0.000000000000e+000 3.566859939765e+005 0.000000000000e+000 3.661494215511e+005 3.005912607403e+005 0.000000000000e+000 0.000000000000e+000 0.000000000000e+000 2.978588093907e+005 3.311413893320e+005 3.059298845075e+005 3.241299198527e+005 3.789644132822e+005 3.604193619640e+005 3.749051119450e+005 3.706417444885e+005 3.604162748333e+005 2.374628841657e+005 2.588174403062e+005 2.776232424178e+005 2.926512910110e+005 3.351459816085e+003 3.504082677401e+005 0.000000000000e+000 2.274275665470e+005 1.865150624759e+005 6.731652692424e+003 1.441741614237e+005 0.000000000000e+000 7.647913079096e+004 2.380242864401e+005 2.588412701002e+005 2.775695921398e+005 2.926015843705e+005 3.503396418672e+005 3.344787519084e+005 3.472300135447e+005 3.472274789155e+005 7.565387491459e+004 3.340552665996e+005 1.441905948991e+005 1.864225864831e+005 2.274005086565e+005 0.000000000000e+000 0.000000000000e+000 3.820096028425e+005 3.820171725329e+005 0.000000000000e+000 3.785215339682e+005 0.000000000000e+000 0.000000000000e+000 3.770946143893e+005 0.000000000000e+000 3.749201981179e+005 3.785316495693e+005 3.243217037365e+005 3.053400043903e+005 3.598606838967e+005 3.748279806260e+005 3.249230529329e+005 3.662595208718e+005 3.664035712143e+005 3.053696731361e+005 3.705323379582e+005 3.204514632455e+005 3.137482018276e+005 3.706906005563e+005 3.410704357828e+005 2.008514003540e+005 1.678369702814e+005 1.197776894791e+005 0.000000000000e+000 0.000000000000e+000 2.161960737560e+005 3.006167471714e+005 2.844333629829e+005 2.687862077259e+005 2.509591213442e+005 3.178418989947e+005 3.663377063768e+005 3.106409640556e+005 3.174080774393e+005 0.000000000000e+000 0.000000000000e+000 3.562402131757e+005 3.305365148143e+005 3.771242113067e+005 3.791869832123e+005 0.000000000000e+000 3.705881073546e+005 2.345392470486e+005 2.576993448971e+005 2.744686322723e+005 2.894237026407e+005 2.085128322016e+005 2.088929361772e+005 2.308736685097e+005 1.743294286382e+005 1.319911275149e+005 3.252497303234e+005 3.563462650064e+004 3.375472789820e+005 0.000000000000e+000 3.499335289536e+005 0.000000000000e+000 0.000000000000e+000 3.525602784398e+004 1.319275887737e+005 1.754726281577e+005 3.499500318190e+005 3.375552080229e+005 2.893996201814e+005 2.744828793674e+005 2.577148266891e+005 0.000000000000e+000 3.596789527213e+005 3.014153971205e+005 0.000000000000e+000 0.000000000000e+000 0.000000000000e+000 3.568830369276e+005 3.605234864741e+005 3.749067085854e+005 3.140379247980e+005 0.000000000000e+000 0.000000000000e+000 1.075175941437e+005 1.609507124476e+005 1.976635313579e+005 3.542383874360e+005 3.414434623553e+005 3.314116775653e+005 2.444765775830e+005 2.815072914148e+005 2.979339598458e+005 2.656431079888e+005 2.197829977516e+005 0.000000000000e+000 0.000000000000e+000 0.000000000000e+000 0.000000000000e+000 1.350102381200e+005 1.788072323471e+005 3.374732710028e+005 2.894848107977e+005 2.735838351154e+005 2.545171100024e+005 3.813963508534e+005 3.175064079631e+005 2.088307905279e+005 2.085030100853e+005 3.047614417565e+005 0.000000000000e+000 3.846109651345e+005 3.277222355342e+005 3.003351221173e+005 1.935097665566e+005 1.575704611970e+005 1.024734104729e+005 0.000000000000e+000 0.000000000000e+000 3.318233202134e+005 3.434774180809e+005 3.541675091979e+005 2.650299682328e+005 2.444555932612e+005 2.975176654592e+005 2.813833130833e+005 0.000000000000e+000 0.000000000000e+000 2.813707345379e+005 2.650129539334e+005 1.024238598814e+005 2.444590578337e+005 1.575217653026e+005 1.934357808425e+005 3.434996563062e+005 2.200680024753e+005 2.201271015870e+005 3.661289167198e+005 3.213299963865e+005 3.683517100690e+005 2.983121680442e+005 3.148159684928e+005 0.000000000000e+000 0.000000000000e+000 3.098626892392e+005 3.063822567132e+005 3.144512944998e+005 2.042785424616e+005 2.350287325630e+005 2.310061880472e+005 2.116003364535e+005 2.510352273131e+005 2.694284906422e+005 2.886292059585e+005 1.817116348373e+005 3.476455047811e+005 3.367870364315e+005 0.000000000000e+000 6.744818643306e+004 1.408759639637e+005 0.000000000000e+000 3.476425700775e+005 6.750989620417e+004 3.367826047085e+005 2.886249647556e+005 2.694057955859e+005 2.514197031483e+005 1.408824288736e+005 1.817208445894e+005 3.814901325916e+005 3.747808318353e+005 0.000000000000e+000 3.814833820253e+005 2.344019288925e+005 2.344856322300e+005 3.479169373944e+005 3.479242815214e+005 4.831280474795e+004 4.880135468849e+004 0.000000000000e+000 3.704875821421e+005 3.770285952195e+005 3.596636689505e+005 3.686020141563e+005 0.000000000000e+000 3.846125508485e+005 0.000000000000e+000 3.846110387797e+005 3.726148286551e+005 0.000000000000e+000 0.000000000000e+000 1.791028567155e+005 1.345178468504e+005 3.373972745363e+005 2.546030023149e+005 2.896823806761e+005 2.739341891680e+005 0.000000000000e+000 3.639555636928e+005 3.639123505026e+005 3.749198867905e+005 3.057356665435e+005 3.244786151824e+005 3.749423842144e+005 3.602662259814e+005 3.540665569301e+005 3.205929778057e+005 3.634062477027e+005 0.000000000000e+000 0.000000000000e+000 3.235127656568e+005 3.061366501737e+005 0.000000000000e+000 3.253652652190e+005 3.059942492888e+005 3.099465278921e+005 0.000000000000e+000 3.565212853039e+005 0.000000000000e+000 2.850521520588e+005 2.683124784640e+005 2.513000083454e+005 2.125629785363e+005 3.412869192266e+005 1.162184232335e+005 3.304608208729e+005 1.684908207076e+005 2.047734631399e+005 0.000000000000e+000 3.663951767361e+005 3.107273977161e+005 3.172832311397e+005 3.252137364377e+005 3.707183812875e+005 0.000000000000e+000 3.846123064391e+005 0.000000000000e+000 3.847541674975e+005 3.771625791622e+005 3.600364686661e+005 3.150965755042e+005 3.205809014902e+005 0.000000000000e+000 3.320640431843e+005 2.971319178447e+005 3.639245094783e+005 3.056671943132e+005 3.684798612371e+005 1.900558179538e+005 1.500071704134e+005 8.687156690736e+004 3.322881667527e+005 3.441993894908e+005 7.470922422895e+004 0.000000000000e+000 1.440784779367e+005 8.922201053122e+003 1.863061504235e+005 3.472660775337e+005 3.340861729446e+005 3.498420519446e+005 2.925600812448e+005 2.587393480923e+005 2.749198678187e+005 2.382230368227e+005 0.000000000000e+000 0.000000000000e+000 3.506474257238e+005 2.270605612874e+005 2.931319800191e+005 2.782961429342e+005 2.589753209996e+005 2.428098460102e+005 2.274858191630e+005 2.201008929044e+005 2.444486050340e+005 2.813906359615e+005 2.650605952453e+005 2.975208129746e+005 0.000000000000e+000 0.000000000000e+000 1.023837284466e+005 1.934555472042e+005 1.574839898207e+005 3.541598907837e+005 3.434971226687e+005 3.318465467095e+005 3.245288506677e+005 3.604096650888e+005 0.000000000000e+000 3.771566342526e+005 2.276356726796e+005 2.380915695666e+005 2.586379091814e+005 2.773461276430e+005 2.924501737451e+005 1.436278538429e+004 0.000000000000e+000 3.497456751670e+005 7.300152289988e+004 1.439456846691e+005 1.861564636283e+005 3.474560660531e+005 3.341376220893e+005 3.146475304719e+005 0.000000000000e+000 3.175621711379e+005 0.000000000000e+000 2.232639935434e+005 2.200045467815e+005 2.442513017389e+005 2.647059280841e+005 2.811398409951e+005 2.972112880281e+005 0.000000000000e+000 0.000000000000e+000 1.037865669417e+005 1.613366810523e+005 1.930206869821e+005 3.433933020878e+005 1.935850587323e+005 2.812629889746e+005 2.626510766407e+005 2.442979808218e+005 1.576200704243e+005 1.025171015038e+005 3.317874153346e+005 0.000000000000e+000 3.434557736649e+005 0.000000000000e+000 3.541647822457e+005 3.685844809805e+005 0.000000000000e+000 3.537754609234e+005 0.000000000000e+000 2.782433977654e+005 2.434163916757e+005 2.616824953963e+005 2.935683157807e+005 3.434220969038e+005 9.323078593542e+004 3.317538992700e+005 1.533389578540e+005 1.897645807469e+005 2.235068099494e+005 3.770664233136e+005 0.000000000000e+000 3.846141610100e+005 0.000000000000e+000 0.000000000000e+000 0.000000000000e+000 3.177211682376e+005 3.108818355865e+005 3.640683239647e+005 3.541030493830e+005 0.000000000000e+000 3.766729443352e+005 0.000000000000e+000 0.000000000000e+000 3.601843557772e+005 2.048397430072e+005 1.721611149369e+005 3.278167942731e+005 1.261331538872e+005 3.406915630629e+005 2.512072625874e+005 2.683126527792e+005 2.849886565391e+005 2.125690449783e+005 0.000000000000e+000 3.567714575781e+005 0.000000000000e+000 3.252278815799e+005 3.048288846504e+005 3.179457787484e+005 3.727384612181e+005 3.749054616940e+005 0.000000000000e+000 3.812025875972e+005 0.000000000000e+000 3.812039379078e+005 2.970861007284e+005 3.320479817474e+005 3.003409675329e+005 3.706243970369e+005 0.000000000000e+000 3.814025794177e+005 3.209396893662e+005 3.103294811659e+005 3.180481437501e+005 3.640914620877e+005 3.726375596883e+005 3.684263003928e+005 3.282176211713e+005 3.726435031288e+005 3.664349175176e+005 3.178688521247e+005 3.750176783784e+005 3.728257690241e+005 3.145657278664e+005 3.239165602746e+005 3.101533188664e+005 3.206625295564e+005 0.000000000000e+000 3.789606194287e+005 3.566389083854e+005 2.197225709832e+005 2.116702370468e+005 0.000000000000e+000 0.000000000000e+000 0.000000000000e+000 0.000000000000e+000 1.226895136338e+005 1.721071439755e+005 3.407063189895e+005 1.970685501465e+005 2.042226211421e+005 2.979335500562e+005 3.004663078919e+005 2.842172791880e+005 2.885688662183e+005 2.693322230536e+005 2.651991258159e+005 2.477042378775e+005 2.517454608907e+005 3.792224356270e+005 0.000000000000e+000 0.000000000000e+000 0.000000000000e+000 0.000000000000e+000 3.815164218836e+005 0.000000000000e+000 2.386531270287e+005 2.587870962709e+005 2.781089936030e+005 2.923580102321e+005 2.272256035913e+005 2.155049439328e+005 2.014361038642e+005 1.686485107516e+005 3.279905403803e+005 1.170226229556e+005 3.412257117473e+005 0.000000000000e+000 3.506154962130e+005 0.000000000000e+000 0.000000000000e+000 0.000000000000e+000 0.000000000000e+000 1.170447141790e+005 1.68646