<?xml version="1.0"?>
<VTKFile type="UnstructuredGrid" version="0.1" byte_order="LittleEndian">
  <UnstructuredGrid>
    <Piece NumberOfPoints="2604" NumberOfCells="4910">
      <Points>
        <DataArray type="Float64" NumberOfComponents="3" format="ascii">
          0.000000000000e+000 0.000000000000e+000 0.000000000000e+000
          2.000000000000e+002 0.000000000000e+000 0.000000000000e+000
          2.000000000000e+002 2.000000000000e+001 0.000000000000e+000
          0.000000000000e+000 2.000000000000e+001 0.000000000000e+000
          1.492537313427e+000 0.000000000000e+000 0.000000000000e+000
          2.985074626854e+000 0.000000000000e+000 0.000000000000e+000
          4.477611940281e+000 0.000000000000e+000 0.000000000000e+000
          5.970149253708e+000 0.000000000000e+000 0.000000000000e+000
          7.462686567135e+000 0.000000000000e+000 0.000000000000e+000
          8.955223880561e+000 0.000000000000e+000 0.000000000000e+000
          1.044776119399e+001 0.000000000000e+000 0.000000000000e+000
          1.194029850741e+001 0.000000000000e+000 0.000000000000e+000
          1.343283582084e+001 0.000000000000e+000 0.000000000000e+000
          1.492537313427e+001 0.000000000000e+000 0.000000000000e+000
          1.641791044770e+001 0.000000000000e+000 0.000000000000e+000
          1.791044776112e+001 0.000000000000e+000 0.000000000000e+000
          1.940298507455e+001 0.000000000000e+000 0.000000000000e+000
          2.089552238798e+001 0.000000000000e+000 0.000000000000e+000
          2.238805970141e+001 0.000000000000e+000 0.000000000000e+000
          2.388059701484e+001 0.000000000000e+000 0.000000000000e+000
          2.537313432826e+001 0.000000000000e+000 0.000000000000e+000
          2.686567164169e+001 0.000000000000e+000 0.000000000000e+000
          2.835820895511e+001 0.000000000000e+000 0.000000000000e+000
          2.985074626854e+001 0.000000000000e+000 0.000000000000e+000
          3.134328358196e+001 0.000000000000e+000 0.000000000000e+000
          3.283582089539e+001 0.000000000000e+000 0.000000000000e+000
          3.432835820881e+001 0.000000000000e+000 0.000000000000e+000
          3.582089552224e+001 0.000000000000e+000 0.000000000000e+000
          3.731343283566e+001 0.000000000000e+000 0.000000000000e+000
          3.880597014909e+001 0.000000000000e+000 0.000000000000e+000
          4.029850746251e+001 0.000000000000e+000 0.000000000000e+000
          4.179104477594e+001 0.000000000000e+000 0.000000000000e+000
          4.328358208936e+001 0.000000000000e+000 0.000000000000e+000
          4.477611940279e+001 0.000000000000e+000 0.000000000000e+000
          4.626865671621e+001 0.000000000000e+000 0.000000000000e+000
          4.776119402964e+001 0.000000000000e+000 0.000000000000e+000
          4.925373134306e+001 0.000000000000e+000 0.000000000000e+000
          5.074626865649e+001 0.000000000000e+000 0.000000000000e+000
          5.223880596991e+001 0.000000000000e+000 0.000000000000e+000
          5.373134328334e+001 0.000000000000e+000 0.000000000000e+000
          5.522388059676e+001 0.000000000000e+000 0.000000000000e+000
          5.671641791019e+001 0.000000000000e+000 0.000000000000e+000
          5.820895522361e+001 0.000000000000e+000 0.000000000000e+000
          5.970149253704e+001 0.000000000000e+000 0.000000000000e+000
          6.119402985046e+001 0.000000000000e+000 0.000000000000e+000
          6.268656716389e+001 0.000000000000e+000 0.000000000000e+000
          6.417910447732e+001 0.000000000000e+000 0.000000000000e+000
          6.567164179075e+001 0.000000000000e+000 0.000000000000e+000
          6.716417910418e+001 0.000000000000e+000 0.000000000000e+000
          6.865671641761e+001 0.000000000000e+000 0.000000000000e+000
          7.014925373104e+001 0.000000000000e+000 0.000000000000e+000
          7.164179104447e+001 0.000000000000e+000 0.000000000000e+000
          7.313432835790e+001 0.000000000000e+000 0.000000000000e+000
          7.462686567133e+001 0.000000000000e+000 0.000000000000e+000
          7.611940298476e+001 0.000000000000e+000 0.000000000000e+000
          7.761194029819e+001 0.000000000000e+000 0.000000000000e+000
          7.910447761162e+001 0.000000000000e+000 0.000000000000e+000
          8.059701492505e+001 0.000000000000e+000 0.000000000000e+000
          8.208955223848e+001 0.000000000000e+000 0.000000000000e+000
          8.358208955191e+001 0.000000000000e+000 0.000000000000e+000
          8.507462686534e+001 0.000000000000e+000 0.000000000000e+000
          8.656716417877e+001 0.000000000000e+000 0.000000000000e+000
          8.805970149220e+001 0.000000000000e+000 0.000000000000e+000
          8.955223880563e+001 0.000000000000e+000 0.000000000000e+000
          9.104477611907e+001 0.000000000000e+000 0.000000000000e+000
          9.253731343250e+001 0.000000000000e+000 0.000000000000e+000
          9.402985074593e+001 0.000000000000e+000 0.000000000000e+000
          9.552238805936e+001 0.000000000000e+000 0.000000000000e+000
          9.701492537279e+001 0.000000000000e+000 0.000000000000e+000
          9.850746268622e+001 0.000000000000e+000 0.000000000000e+000
          9.999999999965e+001 0.000000000000e+000 0.000000000000e+000
          1.014925373131e+002 0.000000000000e+000 0.000000000000e+000
          1.029850746265e+002 0.000000000000e+000 0.000000000000e+000
          1.044776119399e+002 0.000000000000e+000 0.000000000000e+000
          1.059701492534e+002 0.000000000000e+000 0.000000000000e+000
          1.074626865668e+002 0.000000000000e+000 0.000000000000e+000
          1.089552238802e+002 0.000000000000e+000 0.000000000000e+000
          1.104477611937e+002 0.000000000000e+000 0.000000000000e+000
          1.119402985071e+002 0.000000000000e+000 0.000000000000e+000
          1.134328358205e+002 0.000000000000e+000 0.000000000000e+000
          1.149253731340e+002 0.000000000000e+000 0.000000000000e+000
          1.164179104474e+002 0.000000000000e+000 0.000000000000e+000
          1.179104477608e+002 0.000000000000e+000 0.000000000000e+000
          1.194029850742e+002 0.000000000000e+000 0.000000000000e+000
          1.208955223877e+002 0.000000000000e+000 0.000000000000e+000
          1.223880597011e+002 0.000000000000e+000 0.000000000000e+000
          1.238805970145e+002 0.000000000000e+000 0.000000000000e+000
          1.253731343280e+002 0.000000000000e+000 0.000000000000e+000
          1.268656716414e+002 0.000000000000e+000 0.000000000000e+000
          1.283582089548e+002 0.000000000000e+000 0.000000000000e+000
          1.298507462683e+002 0.000000000000e+000 0.000000000000e+000
          1.313432835817e+002 0.000000000000e+000 0.000000000000e+000
          1.328358208952e+002 0.000000000000e+000 0.000000000000e+000
          1.343283582086e+002 0.000000000000e+000 0.000000000000e+000
          1.358208955220e+002 0.000000000000e+000 0.000000000000e+000
          1.373134328355e+002 0.000000000000e+000 0.000000000000e+000
          1.388059701489e+002 0.000000000000e+000 0.000000000000e+000
          1.402985074624e+002 0.000000000000e+000 0.000000000000e+000
          1.417910447758e+002 0.000000000000e+000 0.000000000000e+000
          1.432835820892e+002 0.000000000000e+000 0.000000000000e+000
          1.447761194027e+002 0.000000000000e+000 0.000000000000e+000
          1.462686567161e+002 0.000000000000e+000 0.000000000000e+000
          1.477611940296e+002 0.000000000000e+000 0.000000000000e+000
          1.492537313430e+002 0.000000000000e+000 0.000000000000e+000
          1.507462686564e+002 0.000000000000e+000 0.000000000000e+000
          1.522388059699e+002 0.000000000000e+000 0.000000000000e+000
          1.537313432833e+002 0.000000000000e+000 0.000000000000e+000
          1.552238805968e+002 0.000000000000e+000 0.000000000000e+000
          1.567164179102e+002 0.000000000000e+000 0.000000000000e+000
          1.582089552237e+002 0.000000000000e+000 0.000000000000e+000
          1.597014925371e+002 0.000000000000e+000 0.000000000000e+000
          1.611940298505e+002 0.000000000000e+000 0.000000000000e+000
          1.626865671640e+002 0.000000000000e+000 0.000000000000e+000
          1.641791044774e+002 0.000000000000e+000 0.000000000000e+000
          1.656716417909e+002 0.000000000000e+000 0.000000000000e+000
          1.671641791043e+002 0.000000000000e+000 0.000000000000e+000
          1.686567164177e+002 0.000000000000e+000 0.000000000000e+000
          1.701492537312e+002 0.000000000000e+000 0.000000000000e+000
          1.716417910446e+002 0.000000000000e+000 0.000000000000e+000
          1.731343283581e+002 0.000000000000e+000 0.000000000000e+000
          1.746268656715e+002 0.000000000000e+000 0.000000000000e+000
          1.761194029849e+002 0.000000000000e+000 0.000000000000e+000
          1.776119402984e+002 0.000000000000e+000 0.000000000000e+000
          1.791044776118e+002 0.000000000000e+000 0.000000000000e+000
          1.805970149253e+002 0.000000000000e+000 0.000000000000e+000
          1.820895522387e+002 0.000000000000e+000 0.000000000000e+000
          1.835820895521e+002 0.000000000000e+000 0.000000000000e+000
          1.850746268656e+002 0.000000000000e+000 0.000000000000e+000
          1.865671641790e+002 0.000000000000e+000 0.000000000000e+000
          1.880597014925e+002 0.000000000000e+000 0.000000000000e+000
          1.895522388059e+002 0.000000000000e+000 0.000000000000e+000
          1.910447761194e+002 0.000000000000e+000 0.000000000000e+000
          1.925373134328e+002 0.000000000000e+000 0.000000000000e+000
          1.940298507462e+002 0.000000000000e+000 0.000000000000e+000
          1.955223880597e+002 0.000000000000e+000 0.000000000000e+000
          1.970149253731e+002 0.000000000000e+000 0.000000000000e+000
          1.985074626866e+002 0.000000000000e+000 0.000000000000e+000
          2.000000000000e+002 1.428571428570e+000 0.000000000000e+000
          2.000000000000e+002 2.857142857140e+000 0.000000000000e+000
[...]
      <PointData Scalars="Capillary_Pressure">
        <DataArray type="Float64" Name="Capillary_Pressure" format="ascii">
          3.813770976582e+005 0.000000000000e+000 0.000000000000e+000 3.813801842909e+005 3.816128953684e+005 3.788318183652e+005 3.779677091096e+005 3.760121177835e+005 3.757388301880e+005 3.738219909419e+005 3.717767794586e+005 3.717031642879e+005 3.695170188474e+005 3.693572882829e+005 3.674927396884e+005 3.650989868683e+005 3.651374530635e+005 3.631121530272e+005 3.627169561570e+005 3.606007710339e+005 3.571768566141e+005 3.569977986755e+005 3.564450415336e+005 3.534208442826e+005 3.531100123793e+005 3.509194366696e+005 3.503178450321e+005 3.471603037320e+005 3.466884356786e+005 3.446241197181e+005 3.440197601728e+005 3.408057807135e+005 3.403095475824e+005 3.383397414848e+005 3.376413483678e+005 3.340180254948e+005 3.339888187904e+005 3.313851909873e+005 3.289920300124e+005 3.287579305539e+005 3.280090086896e+005 3.248348787573e+005 3.221999439675e+005 3.218534213984e+005 3.182108526050e+005 3.177773403355e+005 3.149464937041e+005 3.145237004842e+005 3.121035602556e+005 3.112368538522e+005 3.071528549546e+005 3.070170531694e+005 3.031654490252e+005 3.026660285549e+005 2.986989522272e+005 2.973959944866e+005 2.952344892823e+005 2.948335217724e+005 2.937568572738e+005 2.899795007283e+005 2.867645964778e+005 2.864703162855e+005 2.824463175500e+005 2.817753811002e+005 2.789005398599e+005 2.755481587973e+005 2.725632511834e+005 2.720172643080e+005 2.674604187823e+005 2.659255195741e+005 2.633395397142e+005 2.602198552876e+005 2.594476341475e+005 2.566039826472e+005 2.528927792186e+005 2.495836778517e+005 2.491211102981e+005 2.456111075946e+005 2.423988777349e+005 2.411685991203e+005 2.354485577272e+005 2.320896570827e+005 2.290157358587e+005 2.254242054995e+005 2.219329842072e+005 2.182290842133e+005 2.175784371763e+005 2.141069330256e+005 2.102596854474e+005 2.067412573494e+005 1.995013339180e+005 1.956686385926e+005 1.917804839686e+005 1.874268056690e+005 1.848388773923e+005 1.772320105441e+005 1.727246823824e+005 1.702978942301e+005 1.620915330092e+005 1.558429652850e+005 1.528118171312e+005 1.425674771890e+005 1.359846204045e+005 1.288394901875e+005 1.199482152663e+005 1.105769402961e+005 1.002965383634e+005 8.775095204571e+004 7.380450410197e+004 5.617149776027e+004 3.284171411388e+004 0.000000000000e+000 0.000000000000e+000 0.000000000000e+000 0.000000000000e+000 0.000000000000e+000 0.000000000000e+000 0.000000000000e+000 0.000000000000e+000 0.000000000000e+000 0.000000000000e+000 0.000000000000e+000 0.000000000000e+000 0.000000000000e+000 0.000000000000e+000 0.000000000000e+000 0.000000000000e+000 0.000000000000e+000 0.000000000000e+000 0.000000000000e+000 0.000000000000e+000 0.000000000000e+000 0.000000000000e+000 0.000000000000e+000 0.000000000000e+000 0.000000000000e+000 0.000000000000e+000 0.000000000000e+000 0.000000000000e+000 0.000000000000e+000 0.000000000000e+000 0.000000000000e+000 0.000000000000e+000 0.000000000000e+000 0.000000000000e+000 0.000000000000e+000 0.000000000000e+000 0.000000000000e+000 0.000000000000e+000 0.000000000000e+000 0.000000000000e+000 0.000000000000e+000 0.000000000000e+000 0.000000000000e+000 0.000000000000e+000 0.000000000000e+000 0.000000000000e+000 0.000000000000e+000 0.000000000000e+000 0.000000000000e+000 0.000000000000e+000 0.000000000000e+000 0.000000000000e+000 0.000000000000e+000 0.000000000000e+000 0.000000000000e+000 0.000000000000e+000 0.000000000000e+000 0.000000000000e+000 0.000000000000e+000 0.000000000000e+000 0.000000000000e+000 0.000000000000e+000 0.000000000000e+000 0.000000000000e+000 0.000000000000e+000 3.282483711612e+004 5.614297025875e+004 7.379536723870e+004 8.773634904731e+004 1.003000208067e+005 1.105995303815e+005 1.199368935068e+005 1.288376246656e+005 1.359772141887e+005 1.425569109548e+005 1.528100016177e+005 1.558344828776e+005 1.620716318134e+005 1.702904708103e+005 1.727192721458e+005 1.772435129056e+005 1.848264914828e+005 1.874237769560e+005 1.917686485569e+005 1.956489898892e+005 1.994982789447e+005 2.067361250881e+005 2.102660933474e+005 2.141126088754e+005 2.175738218849e+005 2.182364105202e+005 2.219383159370e+005 2.254421151847e+005 2.290094553438e+005 2.320994183625e+005 2.354188652792e+005 2.411599593201e+005 2.423878032758e+005 2.456231851570e+005 2.491053918017e+005 2.495730988270e+005 2.528829026050e+005 2.565898604601e+005 2.594627721875e+005 2.627623789153e+005 2.633428329038e+005 2.659124515044e+005 2.674316862874e+005 2.720302533692e+005 2.751776642031e+005 2.755459319181e+005 2.788276609239e+005 2.817891002402e+005 2.824575402802e+005 2.864611039512e+005 2.867735849081e+005 2.900136291257e+005 2.937551618040e+005 2.948347831695e+005 2.952557603247e+005 2.974084001277e+005 3.017601709902e+005 3.026846634285e+005 3.031629220843e+005 3.070314776423e+005 3.071989619720e+005 3.112212718597e+005 3.120710237901e+005 3.145161160337e+005 3.149345949738e+005 3.177528763204e+005 3.210246616703e+005 3.218542399326e+005 3.221762125253e+005 3.248377086920e+005 3.280034907195e+005 3.287642612675e+005 3.289808015062e+005 3.313827214140e+005 3.339921850569e+005 3.340137247906e+005 3.376411275917e+005 3.383352836207e+005 3.403075762709e+005 3.408082968656e+005 3.440175495533e+005 3.446229182408e+005 3.466878010511e+005 3.471528684439e+005 3.503215299176e+005 3.509129852029e+005 3.531081446170e+005 3.534258733690e+005 3.564468800202e+005 3.569961855093e+005 3.571824748469e+005 3.605903348696e+005 3.627129977678e+005 3.631099641748e+005 3.651464829795e+005 3.650873862208e+005 3.674337164991e+005 3.674903282282e+005 3.695289602541e+005 3.717068364929e+005 3.717608075341e+005 3.738326060050e+005 3.757441176833e+005 3.760243340153e+005 3.779274400472e+005 3.788363353687e+005 3.816119887904e+005 3.813814017194e+005 3.813791841410e+005 3.813814020771e+005 3.813808882164e+005 3.813762215672e+005 3.813790209181e+005 3.813801262711e+005 3.813766634707e+005 3.813780307420e+005 3.813823888904e+005 3.813782780482e+005 3.813784553234e+005 3.813783041966e+005 0.000000000000e+000 3.738092967720e+005 0.000000000000e+000 0.000000000000e+000 4.675697413739e+004 1.328016510342e+005 1.773096895772e+005 3.567977307797e+005 2.063231694745e+005 3.446459408496e+005 3.342381656235e+005 3.221096539484e+005 3.023487443381e+005 2.870647824114e+005 2.715264209718e+005 2.525520257497e+005 2.324836513080e+005 3.653258535657e+005 3.120890599591e+005 2.182162569231e+005 2.212816903402e+005 2.423760516070e+005 2.627941767234e+005 2.788060711168e+005 2.948410492456e+005 0.000000000000e+000 0.000000000000e+000 9.905959943311e+004 2.948337770090e+005 2.790134306451e+005 2.626230144986e+005 2.419965643022e+005 1.556576997252e+005 1.917451819488e+005 3.509274979912e+005 3.403740404104e+005 3.286966483379e+005 1.917174142884e+005 1.558195515269e+005 1.002778108174e+005 0.000000000000e+000 0.000000000000e+000 3.287844455764e+005 3.403119082271e+005 3.509066714849e+005 0.000000000000e+000 0.000000000000e+000 3.150430284554e+005 3.075374971265e+005 3.693465595407e+005 3.605896357043e+005 0.000000000000e+000 3.760178087566e+005 0.000000000000e+000 3.760288387534e+005 3.691115337519e+005 3.606317572825e+005 3.178967728472e+005 3.067942507457e+005 0.000000000000e+000 2.324874197864e+005 0.000000000000e+000 2.525473807642e+005 2.715188495622e+005 2.870492830057e+005 3.019844019924e+005 2.063653818790e+005 4.499271608622e+004 1.319033649888e+005 1.772817412356e+005 3.446754707102e+005 3.342969731645e+005 2.073131086321e+005 1.774292571627e+005 1.327265863349e+005 4.559207864447e+004 2.870659480393e+005 2.715090219687e+005 2.525714193958e+005 0.000000000000e+000 2.324541887757e+005 0.000000000000e+000 3.221722608379e+005 3.342493021474e+005 3.446694606194e+005 3.568026627354e+005 0.000000000000e+000 0.000000000000e+000 3.717617870828e+005 3.564404731401e+005 2.985347442031e+005 3.243645945676e+005 0.000000000000e+000 3.779853671180e+005 3.653122751429e+005 3.737722802263e+005 3.653320706599e+005 3.120853152050e+005 3.175705382856e+005 3.072590797765e+005 3.695265730769e+005 3.605705533489e+005 3.120661355892e+005 0.000000000000e+000 8.978378168162e+004 0.000000000000e+000 1.529197513681e+005 0.000000000000e+000 1.878593612149e+005 2.413230642757e+005 2.757629486097e+005 2.908688697649e+005 2.595933575588e+005 3.503349055956e+005 3.289347779469e+005 3.403115501398e+005 2.218252153618e+005 3.121079023720e+005 0.000000000000e+000 3.788225354215e+005 0.000000000000e+000 3.788200435282e+005 2.367956600706e+005 2.566269882861e+005 2.757566779676e+005 2.903998982206e+005 1.995736908536e+005 2.253138624357e+005 2.141302838978e+005 1.668100052742e+005 3.250212183731e+005 1.142068457489e+005 3.381394818264e+005 0.000000000000e+000 3.474322138521e+005 0.000000000000e+000 0.000000000000e+000 0.000000000000e+000 0.000000000000e+000 0.000000000000e+000 1.150303324458e+005 8.345331793538e+004 1.669432858335e+005 1.494692351195e+005 3.473746238557e+005 1.883185678688e+005 1.995890288225e+005 3.380975976645e+005 3.409701999442e+005 2.903650351050e+005 2.757447411120e+005 2.565948089313e+005 2.820912479494e+005 2.636705635243e+005 2.407958709350e+005 2.452205596798e+005 3.290361871316e+005 2.141210684115e+005 2.250803143908e+005 0.000000000000e+000 3.532722760635e+005 0.000000000000e+000 3.409037469052e+005 8.554272939768e+004 3.291198639324e+005 1.488474292473e+005 2.976414709344e+005 2.822282536236e+005 2.638082903205e+005 2.484377739135e+005 1.884881656790e+005 3.653060687874e+005 0.000000000000e+000 0.000000000000e+000 3.066469287872e+005 3.204870034807e+005 3.604167003707e+005 2.142276439619e+005 2.636719674490e+005 2.451418688178e+005 2.820325383158e+005 2.976252839007e+005 3.532452744667e+005 3.381792254274e+005 0.000000000000e+000 3.250316004401e+005 0.000000000000e+000 1.157144566190e+005 1.994740741183e+005 1.629564505221e+005 3.531124930776e+005 0.000000000000e+000 0.000000000000e+000 3.107655691283e+005 3.695193475941e+005 0.000000000000e+000 2.139826816941e+005 2.029665807095e+005 1.704031765429e+005 3.246606456336e+005 1.207234678764e+005 3.375921205322e+005 2.825019578984e+005 2.659418943107e+005 2.491954670275e+005 0.000000000000e+000 3.534213162312e+005 0.000000000000e+000 3.628901069330e+005 2.978519750263e+005 0.000000000000e+000 0.000000000000e+000 0.000000000000e+000 2.951386015340e+005 3.280725976810e+005 3.031018047185e+005 3.211387955803e+005 3.757562437114e+005 3.571382441454e+005 3.716693312581e+005 3.673904194113e+005 3.571356698356e+005 2.354308201395e+005 2.566009204937e+005 2.752073541310e+005 2.900197007091e+005 0.000000000000e+000 3.471615633911e+005 0.000000000000e+000 2.254956356912e+005 1.848635509926e+005 1.053839411811e+003 1.424529263951e+005 0.000000000000e+000 7.375111363631e+004 2.360061427457e+005 2.566311428819e+005 2.751609646323e+005 2.899767532571e+005 3.470891374655e+005 3.313497649024e+005 3.440313113796e+005 3.440271204261e+005 7.289213324255e+004 3.309175043121e+005 1.424722751482e+005 1.847701932160e+005 2.254666296697e+005 0.000000000000e+000 0.000000000000e+000 3.788217807814e+005 3.788312064177e+005 0.000000000000e+000 3.753077129628e+005 0.000000000000e+000 0.000000000000e+000 3.738674268830e+005 0.000000000000e+000 3.716794460039e+005 3.753157101679e+005 3.213338042834e+005 3.025157867318e+005 3.565801675499e+005 3.715885221432e+005 3.219091969921e+005 3.629975381337e+005 3.631426924395e+005 3.025852546694e+005 3.672779924689e+005 3.174995867343e+005 3.108864240215e+005 3.674320006830e+005 3.379152376604e+005 1.990998568011e+005 1.661744984457e+005 1.178766293795e+005 0.000000000000e+000 0.000000000000e+000 2.143861799927e+005 2.978788050393e+005 2.818789605756e+005 2.664535409877e+005 2.488552384918e+005 3.148984759632e+005 3.630763990558e+005 3.077522528529e+005 3.144434390867e+005 0.000000000000e+000 0.000000000000e+000 3.529777389403e+005 3.275091855250e+005 3.738955093830e+005 3.759752244700e+005 0.000000000000e+000 3.673318575390e+005 2.325417841821e+005 2.555189061149e+005 2.720632591484e+005 2.867894723602e+005 2.067698145907e+005 2.071020733556e+005 2.289076965100e+005 1.726619261070e+005 1.302251093450e+005 3.222070095015e+005 3.118408009661e+004 3.343825046861e+005 0.000000000000e+000 3.467114274654e+005 0.000000000000e+000 0.000000000000e+000 3.077915418441e+004 1.301633957717e+005 1.738276241929e+005 3.467291935003e+005 3.343889885762e+005 2.867693486344e+005 2.720825014245e+005 2.555413101956e+005 0.000000000000e+000 3.564304577376e+005 2.986287212444e+005 0.000000000000e+000 0.000000000000e+000 0.000000000000e+000 3.536052491263e+005 3.572458557773e+005 3.716665664989e+005 3.111650445565e+005 0.000000000000e+000 0.000000000000e+000 1.054516546066e+005 1.592846264423e+005 1.959691052678e+005 3.509771111218e+005 3.382525440241e+005 3.283472213510e+005 2.423785644027e+005 2.790047713947e+005 2.952299312604e+005 2.633473531043e+005 2.179401602201e+005 0.000000000000e+000 0.000000000000e+000 0.000000000000e+000 0.000000000000e+000 1.332660393690e+005 1.771748454684e+005 3.343278630737e+005 2.869178875529e+005 2.712283749088e+005 2.523620922430e+005 3.782088685183e+005 3.145949390472e+005 2.070730234128e+005 2.067034654677e+005 3.019977407952e+005 0.000000000000e+000 3.814575400415e+005 3.246712407500e+005 2.975758420103e+005 1.917972115395e+005 1.558957631480e+005 1.003296668148e+005 0.000000000000e+000 0.000000000000e+000 3.287427654286e+005 3.402893248163e+005 3.509169553799e+005 2.627584027769e+005 2.423956694770e+005 2.948364695606e+005 2.788920335459e+005 0.000000000000e+000 0.000000000000e+000 2.788658050721e+005 2.627384647935e+005 1.002831127193e+005 2.424000300191e+005 1.558473136826e+005 1.917257145352e+005 3.403090825434e+005 2.181847195123e+005 2.182435807810e+005 3.628667337504e+005 3.183225210511e+005 3.651011996377e+005 2.955700543571e+005 3.119149107513e+005 0.000000000000e+000 0.000000000000e+000 3.070180211905e+005 3.035363716806e+005 3.115642474766e+005 2.025084315004e+005 2.330331075682e+005 2.290720625418e+005 2.097872362438e+005 2.488729878912e+005 2.670570607390e+005 2.860786070067e+005 1.800312662014e+005 3.444352785264e+005 3.336702890667e+005 0.000000000000e+000 6.442054092230e+004 1.391436024627e+005 0.000000000000e+000 3.444314281909e+005 6.448437039781e+004 3.336635597483e+005 2.860682527007e+005 2.670303990720e+005 2.492557139804e+005 1.391507227062e+005 1.800451042846e+005 3.783012919204e+005 3.715412598337e+005 0.000000000000e+000 3.782959200025e+005 2.324575166132e+005 2.325266033829e+005 3.446782189316e+005 3.446891120190e+005 4.449669954732e+004 4.500515569279e+004 0.000000000000e+000 3.672301254528e+005 3.738044313836e+005 3.564174332787e+005 3.653471770872e+005 0.000000000000e+000 3.814565328924e+005 0.000000000000e+000 3.814559221347e+005 3.693624227392e+005 0.000000000000e+000 0.000000000000e+000 1.774589178477e+005 1.327482172712e+005 3.342560307428e+005 2.524331988875e+005 2.870974032029e+005 2.715636255613e+005 0.000000000000e+000 3.606940132460e+005 3.606511362899e+005 3.716788653567e+005 3.029295138537e+005 3.214840212630e+005 3.717045878718e+005 3.569934585228e+005 3.508204947469e+005 3.176295329847e+005 3.601541014463e+005 0.000000000000e+000 0.000000000000e+000 3.205396818539e+005 3.033029714711e+005 0.000000000000e+000 3.223247468437e+005 3.031616318681e+005 3.071071429762e+005 0.000000000000e+000 3.532694974104e+005 0.000000000000e+000 2.824916735543e+005 2.659446529219e+005 2.491867430672e+005 2.107635285206e+005 3.381179961075e+005 1.142736526229e+005 3.274084575675e+005 1.668673082533e+005 2.030467035050e+005 0.000000000000e+000 3.631395255979e+005 3.078350191649e+005 3.143564755030e+005 3.221870664766e+005 3.674501232789e+005 0.000000000000e+000 3.814542837647e+005 0.000000000000e+000 3.815993081662e+005 3.739334967804e+005 3.567842756645e+005 3.121769555301e+005 3.176242187679e+005 0.000000000000e+000 3.289662481263e+005 2.944657528106e+005 3.606649295668e+005 3.028678089587e+005 3.652438372034e+005 1.884008006299e+005 1.483181207790e+005 8.441005015087e+004 3.291531520185e+005 3.409792660838e+005 7.191685985104e+004 0.000000000000e+000 1.423651457750e+005 3.286428880874e+003 1.846567742780e+005 3.440677806843e+005 3.309398919663e+005 3.465883262177e+005 2.899381223752e+005 2.565427166255e+005 2.724819121105e+005 2.362218324836e+005 0.000000000000e+000 0.000000000000e+000 3.473905999936e+005 2.251696324832e+005 2.904742162033e+005 2.758354068466e+005 2.566950504776e+005 2.408185026728e+005 2.255353204666e+005 2.182180141098e+005 2.423889304079e+005 2.789086955685e+005 2.628043385692e+005 2.948384492530e+005 0.000000000000e+000 0.000000000000e+000 1.002427207624e+005 1.917314830463e+005 1.558040039580e+005 3.509099285669e+005 3.403039656687e+005 3.287611684945e+005 3.215248807079e+005 3.571369504180e+005 0.000000000000e+000 3.739290630186e+005 2.256944576526e+005 2.360895697534e+005 2.564423963088e+005 2.749369102327e+005 2.898352870825e+005 8.885087696545e+003 0.000000000000e+000 3.464952473961e+005 7.015577720378e+004 1.422340071843e+005 1.845101100132e+005 3.442534702530e+005 3.309975954421e+005 3.116985062502e+005 0.000000000000e+000 3.146397199647e+005 0.000000000000e+000 2.214092025798e+005 2.181333954205e+005 2.422037191394e+005 2.624349472663e+005 2.786485077080e+005 2.945463893523e+005 0.000000000000e+000 0.000000000000e+000 1.016610315644e+005 1.597044074583e+005 1.913151256401e+005 3.402114063159e+005 1.918541146934e+005 2.787828041963e+005 2.603279351724e+005 2.422438586424e+005 1.559434847542e+005 1.003705173584e+005 3.287088432458e+005 0.000000000000e+000 3.402690521685e+005 0.000000000000e+000 3.509147398728e+005 3.653212856701e+005 0.000000000000e+000 3.505401491063e+005 0.000000000000e+000 2.757819105781e+005 2.413791376065e+005 2.594284551966e+005 2.908758754681e+005 3.402185523513e+005 9.091150043568e+004 3.286256504799e+005 1.516610823481e+005 1.880496936551e+005 2.216081519023e+005 3.738421059582e+005 0.000000000000e+000 3.814583062868e+005 0.000000000000e+000 0.000000000000e+000 0.000000000000e+000 3.147952095049e+005 3.079797010903e+005 3.608027970027e+005 3.508562590170e+005 0.000000000000e+000 3.734448842353e+005 0.000000000000e+000 0.000000000000e+000 3.569242721009e+005 2.031046120490e+005 1.705283905241e+005 3.247700251587e+005 1.243267325228e+005 3.375467949215e+005 2.490950909515e+005 2.659520466907e+005 2.824385107308e+005 2.107561817919e+005 0.000000000000e+000 3.535021548854e+005 0.000000000000e+000 3.221989690492e+005 3.020621341480e+005 3.149692903909e+005 3.694876294700e+005 3.716682773182e+005 0.000000000000e+000 3.780118141186e+005 0.000000000000e+000 3.780137630258e+005 2.944240595316e+005 3.289511931223e+005 2.975747808564e+005 3.673725295949e+005 0.000000000000e+000 3.782114186514e+005 3.179551157897e+005 3.074751138223e+005 3.150694661286e+005 3.608235264498e+005 3.693891076090e+005 3.651563851437e+005 3.251310937492e+005 3.693936169718e+005 3.631735632165e+005 3.149373052712e+005 3.717765585852e+005 3.695735023578e+005 3.116728787154e+005 3.209449643837e+005 3.073056651160e+005 3.176936919145e+005 0.000000000000e+000 3.757498958010e+005 3.533819993099e+005 2.178930187777e+005 2.098566741938e+005 0.000000000000e+000 0.000000000000e+000 0.000000000000e+000 0.000000000000e+000 1.208149761891e+005 1.704766184274e+005 3.375573850174e+005 1.953441243846e+005 2.024640242240e+005 2.952093077076e+005 2.976999903854e+005 2.816871324226e+005 2.860252487312e+005 2.669606204543e+005 2.628615738074e+005 2.456253924098e+005 2.496093167173e+005 3.760119883405e+005 0.000000000000e+000 0.000000000000e+000 0.000000000000e+000 0.000000000000e+000 3.783280323774e+005 0.000000000000e+000 2.366175141756e+005 2.565335892708e+005 2.756636914364e+005 2.896865158465e+005 2.253262609658e+005 2.136792914629e+005 1.997114296817e+005 1.670202790144e+005 3.249205440034e+005 1.150861072056e+005 3.380590881443e+005 0.000000000000e+000 3.473591727843e+005 0.000000000000e+000 0.000000000000e+000 0.000000000000e+000 0.000000000000e+000 1.151081291467e+005 1.67018