<?xml version="1.0"?>
<VTKFile type="UnstructuredGrid" version="0.1" byte_order="LittleEndian">
  <UnstructuredGrid>
    <Piece NumberOfPoints="2604" NumberOfCells="4910">
      <Points>
        <DataArray type="Float64" NumberOfComponents="3" format="ascii">
          0.000000000000e+000 0.000000000000e+000 0.000000000000e+000
          2.000000000000e+002 0.000000000000e+000 0.000000000000e+000
          2.000000000000e+002 2.000000000000e+001 0.000000000000e+000
          0.000000000000e+000 2.000000000000e+001 0.000000000000e+000
          1.492537313427e+000 0.000000000000e+000 0.000000000000e+000
          2.985074626854e+000 0.000000000000e+000 0.000000000000e+000
          4.477611940281e+000 0.000000000000e+000 0.000000000000e+000
          5.970149253708e+000 0.000000000000e+000 0.000000000000e+000
          7.462686567135e+000 0.000000000000e+000 0.000000000000e+000
          8.955223880561e+000 0.000000000000e+000 0.000000000000e+000
          1.044776119399e+001 0.000000000000e+000 0.000000000000e+000
          1.194029850741e+001 0.000000000000e+000 0.000000000000e+000
          1.343283582084e+001 0.000000000000e+000 0.000000000000e+000
          1.492537313427e+001 0.000000000000e+000 0.000000000000e+000
          1.641791044770e+001 0.000000000000e+000 0.000000000000e+000
          1.791044776112e+001 0.000000000000e+000 0.000000000000e+000
          1.940298507455e+001 0.000000000000e+000 0.000000000000e+000
          2.089552238798e+001 0.000000000000e+000 0.000000000000e+000
          2.238805970141e+001 0.000000000000e+000 0.000000000000e+000
          2.388059701484e+001 0.000000000000e+000 0.000000000000e+000
          2.537313432826e+001 0.000000000000e+000 0.000000000000e+000
          2.686567164169e+001 0.000000000000e+000 0.000000000000e+000
          2.835820895511e+001 0.000000000000e+000 0.000000000000e+000
          2.985074626854e+001 0.000000000000e+000 0.000000000000e+000
          3.134328358196e+001 0.000000000000e+000 0.000000000000e+000
          3.283582089539e+001 0.000000000000e+000 0.000000000000e+000
          3.432835820881e+001 0.000000000000e+000 0.000000000000e+000
          3.582089552224e+001 0.000000000000e+000 0.000000000000e+000
          3.731343283566e+001 0.000000000000e+000 0.000000000000e+000
          3.880597014909e+001 0.000000000000e+000 0.000000000000e+000
          4.029850746251e+001 0.000000000000e+000 0.000000000000e+000
          4.179104477594e+001 0.000000000000e+000 0.000000000000e+000
          4.328358208936e+001 0.000000000000e+000 0.000000000000e+000
          4.477611940279e+001 0.000000000000e+000 0.000000000000e+000
          4.626865671621e+001 0.000000000000e+000 0.000000000000e+000
          4.776119402964e+001 0.000000000000e+000 0.000000000000e+000
          4.925373134306e+001 0.000000000000e+000 0.000000000000e+000
          5.074626865649e+001 0.000000000000e+000 0.000000000000e+000
          5.223880596991e+001 0.000000000000e+000 0.000000000000e+000
          5.373134328334e+001 0.000000000000e+000 0.000000000000e+000
          5.522388059676e+001 0.000000000000e+000 0.000000000000e+000
          5.671641791019e+001 0.000000000000e+000 0.000000000000e+000
          5.820895522361e+001 0.000000000000e+000 0.000000000000e+000
          5.970149253704e+001 0.000000000000e+000 0.000000000000e+000
          6.119402985046e+001 0.000000000000e+000 0.000000000000e+000
          6.268656716389e+001 0.000000000000e+000 0.000000000000e+000
          6.417910447732e+001 0.000000000000e+000 0.000000000000e+000
          6.567164179075e+001 0.000000000000e+000 0.000000000000e+000
          6.716417910418e+001 0.000000000000e+000 0.000000000000e+000
          6.865671641761e+001 0.000000000000e+000 0.000000000000e+000
          7.014925373104e+001 0.000000000000e+000 0.000000000000e+000
          7.164179104447e+001 0.000000000000e+000 0.000000000000e+000
          7.313432835790e+001 0.000000000000e+000 0.000000000000e+000
          7.462686567133e+001 0.000000000000e+000 0.000000000000e+000
          7.611940298476e+001 0.000000000000e+000 0.000000000000e+000
          7.761194029819e+001 0.000000000000e+000 0.000000000000e+000
          7.910447761162e+001 0.000000000000e+000 0.000000000000e+000
          8.059701492505e+001 0.000000000000e+000 0.000000000000e+000
          8.208955223848e+001 0.000000000000e+000 0.000000000000e+000
          8.358208955191e+001 0.000000000000e+000 0.000000000000e+000
          8.507462686534e+001 0.000000000000e+000 0.000000000000e+000
          8.656716417877e+001 0.000000000000e+000 0.000000000000e+000
          8.805970149220e+001 0.000000000000e+000 0.000000000000e+000
          8.955223880563e+001 0.000000000000e+000 0.000000000000e+000
          9.104477611907e+001 0.000000000000e+000 0.000000000000e+000
          9.253731343250e+001 0.000000000000e+000 0.000000000000e+000
          9.402985074593e+001 0.000000000000e+000 0.000000000000e+000
          9.552238805936e+001 0.000000000000e+000 0.000000000000e+000
          9.701492537279e+001 0.000000000000e+000 0.000000000000e+000
          9.850746268622e+001 0.000000000000e+000 0.000000000000e+000
          9.999999999965e+001 0.000000000000e+000 0.000000000000e+000
          1.014925373131e+002 0.000000000000e+000 0.000000000000e+000
          1.029850746265e+002 0.000000000000e+000 0.000000000000e+000
          1.044776119399e+002 0.000000000000e+000 0.000000000000e+000
          1.059701492534e+002 0.000000000000e+000 0.000000000000e+000
          1.074626865668e+002 0.000000000000e+000 0.000000000000e+000
          1.089552238802e+002 0.000000000000e+000 0.000000000000e+000
          1.104477611937e+002 0.000000000000e+000 0.000000000000e+000
          1.119402985071e+002 0.000000000000e+000 0.000000000000e+000
          1.134328358205e+002 0.000000000000e+000 0.000000000000e+000
          1.149253731340e+002 0.000000000000e+000 0.000000000000e+000
          1.164179104474e+002 0.000000000000e+000 0.000000000000e+000
          1.179104477608e+002 0.000000000000e+000 0.000000000000e+000
          1.194029850742e+002 0.000000000000e+000 0.000000000000e+000
          1.208955223877e+002 0.000000000000e+000 0.000000000000e+000
          1.223880597011e+002 0.000000000000e+000 0.000000000000e+000
          1.238805970145e+002 0.000000000000e+000 0.000000000000e+000
          1.253731343280e+002 0.000000000000e+000 0.000000000000e+000
          1.268656716414e+002 0.000000000000e+000 0.000000000000e+000
          1.283582089548e+002 0.000000000000e+000 0.000000000000e+000
          1.298507462683e+002 0.000000000000e+000 0.000000000000e+000
          1.313432835817e+002 0.000000000000e+000 0.000000000000e+000
          1.328358208952e+002 0.000000000000e+000 0.000000000000e+000
          1.343283582086e+002 0.000000000000e+000 0.000000000000e+000
          1.358208955220e+002 0.000000000000e+000 0.000000000000e+000
          1.373134328355e+002 0.000000000000e+000 0.000000000000e+000
          1.388059701489e+002 0.000000000000e+000 0.000000000000e+000
          1.402985074624e+002 0.000000000000e+000 0.000000000000e+000
          1.417910447758e+002 0.000000000000e+000 0.000000000000e+000
          1.432835820892e+002 0.000000000000e+000 0.000000000000e+000
          1.447761194027e+002 0.000000000000e+000 0.000000000000e+000
          1.462686567161e+002 0.000000000000e+000 0.000000000000e+000
          1.477611940296e+002 0.000000000000e+000 0.000000000000e+000
          1.492537313430e+002 0.000000000000e+000 0.000000000000e+000
          1.507462686564e+002 0.000000000000e+000 0.000000000000e+000
          1.522388059699e+002 0.000000000000e+000 0.000000000000e+000
          1.537313432833e+002 0.000000000000e+000 0.000000000000e+000
          1.552238805968e+002 0.000000000000e+000 0.000000000000e+000
          1.567164179102e+002 0.000000000000e+000 0.000000000000e+000
          1.582089552237e+002 0.000000000000e+000 0.000000000000e+000
          1.597014925371e+002 0.000000000000e+000 0.000000000000e+000
          1.611940298505e+002 0.000000000000e+000 0.000000000000e+000
          1.626865671640e+002 0.000000000000e+000 0.000000000000e+000
          1.641791044774e+002 0.000000000000e+000 0.000000000000e+000
          1.656716417909e+002 0.000000000000e+000 0.000000000000e+000
          1.671641791043e+002 0.000000000000e+000 0.000000000000e+000
          1.686567164177e+002 0.000000000000e+000 0.000000000000e+000
          1.701492537312e+002 0.000000000000e+000 0.000000000000e+000
          1.716417910446e+002 0.000000000000e+000 0.000000000000e+000
          1.731343283581e+002 0.000000000000e+000 0.000000000000e+000
          1.746268656715e+002 0.000000000000e+000 0.000000000000e+000
          1.761194029849e+002 0.000000000000e+000 0.000000000000e+000
          1.776119402984e+002 0.000000000000e+000 0.000000000000e+000
          1.791044776118e+002 0.000000000000e+000 0.000000000000e+000
          1.805970149253e+002 0.000000000000e+000 0.000000000000e+000
          1.820895522387e+002 0.000000000000e+000 0.000000000000e+000
          1.835820895521e+002 0.000000000000e+000 0.000000000000e+000
          1.850746268656e+002 0.000000000000e+000 0.000000000000e+000
          1.865671641790e+002 0.000000000000e+000 0.000000000000e+000
          1.880597014925e+002 0.000000000000e+000 0.000000000000e+000
          1.895522388059e+002 0.000000000000e+000 0.000000000000e+000
          1.910447761194e+002 0.000000000000e+000 0.000000000000e+000
          1.925373134328e+002 0.000000000000e+000 0.000000000000e+000
          1.940298507462e+002 0.000000000000e+000 0.000000000000e+000
          1.955223880597e+002 0.000000000000e+000 0.000000000000e+000
          1.970149253731e+002 0.000000000000e+000 0.000000000000e+000
          1.985074626866e+002 0.000000000000e+000 0.000000000000e+000
          2.000000000000e+002 1.428571428570e+000 0.000000000000e+000
          2.000000000000e+002 2.857142857140e+000 0.000000000000e+000
[...]
      <PointData Scalars="Capillary_Pressure">
        <DataArray type="Float64" Name="Capillary_Pressure" format="ascii">
          3.855970800762e+005 0.000000000000e+000 0.000000000000e+000 3.855993796802e+005 3.858249653919e+005 3.830915091291e+005 3.822295667855e+005 3.802977903642e+005 3.800249032333e+005 3.781295685205e+005 3.761015873850e+005 3.760256168392e+005 3.738563898942e+005 3.736882888866e+005 3.718123124906e+005 3.694406206475e+005 3.694823365306e+005 3.674645649274e+005 3.670558017188e+005 3.649512102685e+005 3.615556568261e+005 3.613506857013e+005 3.607851485401e+005 3.577792530724e+005 3.574439552939e+005 3.552578300820e+005 3.546331025599e+005 3.514910750937e+005 3.509907757082e+005 3.489247663341e+005 3.482874295134e+005 3.450870337215e+005 3.445618437796e+005 3.425834494399e+005 3.418472501895e+005 3.382461650329e+005 3.381625040804e+005 3.355528392763e+005 3.331611690252e+005 3.328757439668e+005 3.320809118204e+005 3.289206158386e+005 3.262479073532e+005 3.258770515006e+005 3.222148766932e+005 3.217465599386e+005 3.189160547597e+005 3.184271817912e+005 3.159873316878e+005 3.150801045736e+005 3.109913880253e+005 3.108022701648e+005 3.069454151255e+005 3.063873975670e+005 3.024235741197e+005 3.010590505908e+005 2.988726451598e+005 2.984077040152e+005 2.972794040219e+005 2.934869409543e+005 2.902644068943e+005 2.898928763993e+005 2.858431828670e+005 2.851413597531e+005 2.822172976738e+005 2.788392520270e+005 2.758272706192e+005 2.752081324333e+005 2.706571471411e+005 2.690550440267e+005 2.664421662106e+005 2.632896150517e+005 2.624311505548e+005 2.595534341126e+005 2.558179646672e+005 2.524879908341e+005 2.519412636645e+005 2.483960920946e+005 2.451520356669e+005 2.438388193209e+005 2.381325787184e+005 2.347510234332e+005 2.316111443400e+005 2.280048996909e+005 2.244699044943e+005 2.207399418043e+005 2.200113579817e+005 2.164978010366e+005 2.126106507088e+005 2.090697702782e+005 2.018467857798e+005 1.979731968023e+005 1.940479534744e+005 1.896862746764e+005 1.870439433769e+005 1.794671653695e+005 1.749435549737e+005 1.724572955271e+005 1.643005001001e+005 1.580689771407e+005 1.549931915382e+005 1.448541654512e+005 1.383122657580e+005 1.312239744289e+005 1.224458048103e+005 1.132186540334e+005 1.031359023569e+005 9.091234622695e+004 7.742346873767e+004 6.056783607170e+004 3.861172954182e+004 7.123912061296e+003 0.000000000000e+000 0.000000000000e+000 0.000000000000e+000 0.000000000000e+000 0.000000000000e+000 0.000000000000e+000 0.000000000000e+000 0.000000000000e+000 0.000000000000e+000 0.000000000000e+000 0.000000000000e+000 0.000000000000e+000 0.000000000000e+000 0.000000000000e+000 0.000000000000e+000 0.000000000000e+000 0.000000000000e+000 0.000000000000e+000 0.000000000000e+000 0.000000000000e+000 0.000000000000e+000 0.000000000000e+000 0.000000000000e+000 0.000000000000e+000 0.000000000000e+000 0.000000000000e+000 0.000000000000e+000 0.000000000000e+000 0.000000000000e+000 0.000000000000e+000 0.000000000000e+000 0.000000000000e+000 0.000000000000e+000 0.000000000000e+000 0.000000000000e+000 0.000000000000e+000 0.000000000000e+000 0.000000000000e+000 0.000000000000e+000 0.000000000000e+000 0.000000000000e+000 0.000000000000e+000 0.000000000000e+000 0.000000000000e+000 0.000000000000e+000 0.000000000000e+000 0.000000000000e+000 0.000000000000e+000 0.000000000000e+000 0.000000000000e+000 0.000000000000e+000 0.000000000000e+000 0.000000000000e+000 0.000000000000e+000 0.000000000000e+000 0.000000000000e+000 0.000000000000e+000 0.000000000000e+000 0.000000000000e+000 0.000000000000e+000 0.000000000000e+000 0.000000000000e+000 0.000000000000e+000 7.119256490512e+003 3.859975688416e+004 6.053844879329e+004 7.741462893746e+004 9.089724033614e+004 1.031391476582e+005 1.132398932877e+005 1.224340789544e+005 1.312215970855e+005 1.383057485627e+005 1.448469459808e+005 1.549897811384e+005 1.580607691835e+005 1.642835887316e+005 1.724504859680e+005 1.749405061337e+005 1.794721994225e+005 1.870341250811e+005 1.896821055038e+005 1.940382562796e+005 1.979548928728e+005 2.018283679399e+005 2.090622580185e+005 2.126161165002e+005 2.165021534327e+005 2.200100321620e+005 2.207381795462e+005 2.244784791855e+005 2.280154240824e+005 2.316015565023e+005 2.347557949618e+005 2.381117018448e+005 2.438298705614e+005 2.451353096768e+005 2.484009070314e+005 2.519265778441e+005 2.524759640123e+005 2.558044831030e+005 2.595418490038e+005 2.624456155645e+005 2.657890956236e+005 2.664418786902e+005 2.690379556626e+005 2.706340375006e+005 2.752211169567e+005 2.784003657914e+005 2.788255327315e+005 2.821520976912e+005 2.851448193211e+005 2.858464295085e+005 2.898928830868e+005 2.902717276582e+005 2.935164838730e+005 2.972760953680e+005 2.984124560003e+005 2.988876354109e+005 3.010813578057e+005 3.054256304354e+005 3.064083726622e+005 3.069461075554e+005 3.108083184517e+005 3.110330176276e+005 3.150614665969e+005 3.159575620431e+005 3.184142879110e+005 3.188960404716e+005 3.217281230887e+005 3.249903112334e+005 3.258766212912e+005 3.262356285477e+005 3.289150181639e+005 3.320837821064e+005 3.328782239619e+005 3.331534731912e+005 3.355545842451e+005 3.381632992892e+005 3.382443855257e+005 3.418442228658e+005 3.425796643756e+005 3.445593240630e+005 3.450901727135e+005 3.482851449036e+005 3.489237993077e+005 3.509899104103e+005 3.514852037198e+005 3.546343105292e+005 3.552522317549e+005 3.574441722498e+005 3.577832331671e+005 3.607849752313e+005 3.613539644584e+005 3.615641015560e+005 3.649413407286e+005 3.670527642629e+005 3.674656256680e+005 3.694905239764e+005 3.694327504278e+005 3.717936152042e+005 3.718520383107e+005 3.738736926597e+005 3.760221542487e+005 3.760951195195e+005 3.781362355570e+005 3.800311857806e+005 3.803113605481e+005 3.821888245558e+005 3.830938266566e+005 3.858245181769e+005 3.855988280248e+005 3.855963963076e+005 3.855999114122e+005 3.855987158981e+005 3.855963366011e+005 3.855973842127e+005 3.855977376475e+005 3.855960039977e+005 3.855966891403e+005 3.855984962544e+005 3.855981628474e+005 3.855956939577e+005 3.855964572305e+005 0.000000000000e+000 3.781119207003e+005 0.000000000000e+000 0.000000000000e+000 5.166596329310e+004 1.351531369805e+005 1.795001158415e+005 3.611438847182e+005 2.086886766795e+005 3.489589726951e+005 3.384287721813e+005 3.261428680351e+005 3.060420503481e+005 2.905060488488e+005 2.746837338726e+005 2.554373113844e+005 2.350950341716e+005 3.696789293300e+005 3.159762260428e+005 2.207232107106e+005 2.237456323710e+005 2.451309030537e+005 2.657953085163e+005 2.821360656954e+005 2.984144731969e+005 0.000000000000e+000 0.000000000000e+000 1.019272601641e+005 2.984104812593e+005 2.823258113741e+005 2.656420319556e+005 2.447688208325e+005 1.578758165047e+005 1.940327300377e+005 3.552669569864e+005 3.446344352575e+005 3.328066952747e+005 1.939737670365e+005 1.580438422436e+005 1.031182591324e+005 0.000000000000e+000 0.000000000000e+000 3.329034400330e+005 3.445636777774e+005 3.552441683465e+005 0.000000000000e+000 0.000000000000e+000 3.190144460340e+005 3.113546003567e+005 3.736857281298e+005 3.649420932617e+005 0.000000000000e+000 3.803058093332e+005 0.000000000000e+000 3.803138691824e+005 3.734454189602e+005 3.649881637201e+005 3.218767842925e+005 3.105662027448e+005 0.000000000000e+000 2.350858289339e+005 0.000000000000e+000 2.554324430202e+005 2.746743961177e+005 2.904904488301e+005 3.056668304631e+005 2.087401191440e+005 5.000748765022e+004 1.342608366736e+005 1.794577483650e+005 3.489966625233e+005 3.384968445280e+005 2.096744217890e+005 1.796137047460e+005 1.350746637872e+005 5.057175352859e+004 2.905058235606e+005 2.746684383080e+005 2.554552851571e+005 0.000000000000e+000 2.350731206540e+005 0.000000000000e+000 3.262100343485e+005 3.384518455812e+005 3.489902118692e+005 3.611461029919e+005 0.000000000000e+000 0.000000000000e+000 3.760938111561e+005 3.607738269491e+005 3.022447757277e+005 3.284087935558e+005 0.000000000000e+000 3.822435326939e+005 3.696646493870e+005 3.780760388872e+005 3.696810272600e+005 3.160241219674e+005 3.214919277913e+005 3.110536009627e+005 3.738666964834e+005 3.649105093246e+005 3.159481350528e+005 0.000000000000e+000 9.287929365076e+004 0.000000000000e+000 1.551058923208e+005 0.000000000000e+000 1.901116093718e+005 2.440372265678e+005 2.790080869785e+005 2.944322599152e+005 2.625534358481e+005 3.546502763908e+005 3.330993948416e+005 3.445987010811e+005 2.243518522555e+005 3.159821340760e+005 0.000000000000e+000 3.830809489887e+005 0.000000000000e+000 3.830764863963e+005 2.395104863300e+005 2.596743563989e+005 2.790357301450e+005 2.939414656446e+005 2.018642700099e+005 2.278479468243e+005 2.165665917898e+005 1.689679973158e+005 3.291136226860e+005 1.167870690846e+005 3.423681573281e+005 0.000000000000e+000 3.517770191104e+005 0.000000000000e+000 0.000000000000e+000 0.000000000000e+000 0.000000000000e+000 0.000000000000e+000 1.175970021161e+005 8.674621546523e+004 1.691085205876e+005 1.516850697232e+005 3.517145573332e+005 1.905412927176e+005 2.018827298064e+005 3.423213358019e+005 3.452764652556e+005 2.939254790551e+005 2.790150561115e+005 2.596004721776e+005 2.854698979798e+005 2.667898206298e+005 2.434466440152e+005 2.480519908743e+005 3.332039371300e+005 2.165479209082e+005 2.275922320105e+005 0.000000000000e+000 3.576135757398e+005 0.000000000000e+000 3.452038760511e+005 8.876511603159e+004 3.332872791602e+005 1.510875486433e+005 3.012817957512e+005 2.856029798759e+005 2.669280475411e+005 2.512225439207e+005 1.906975163638e+005 3.696600201821e+005 0.000000000000e+000 0.000000000000e+000 3.104082866357e+005 3.244368367308e+005 3.647574652178e+005 2.166648326773e+005 2.667763611711e+005 2.479950290700e+005 2.854231527520e+005 3.012625729737e+005 3.575843878319e+005 3.424189929086e+005 0.000000000000e+000 3.291450364849e+005 0.000000000000e+000 1.182393191941e+005 2.017479421080e+005 1.651898118607e+005 3.574505473443e+005 0.000000000000e+000 0.000000000000e+000 3.145692429861e+005 3.738587439657e+005 0.000000000000e+000 2.163603825038e+005 2.052407578545e+005 1.725664852753e+005 3.287361458531e+005 1.232094274507e+005 3.418018809053e+005 2.859096826763e+005 2.690928595392e+005 2.520068120857e+005 0.000000000000e+000 3.577787758565e+005 0.000000000000e+000 3.672422095365e+005 3.015038724445e+005 0.000000000000e+000 0.000000000000e+000 0.000000000000e+000 2.987648574887e+005 3.321692495997e+005 3.068738069656e+005 3.251315144461e+005 3.800393654350e+005 3.615197310199e+005 3.759899791312e+005 3.717285351977e+005 3.615151718090e+005 2.381425434995e+005 2.595567169052e+005 2.784280917004e+005 2.935289068687e+005 5.234039728848e+003 3.514946352086e+005 0.000000000000e+000 2.280689224003e+005 1.870594551842e+005 8.579834031252e+003 1.447411337013e+005 0.000000000000e+000 7.736202421199e+004 2.386978123822e+005 2.595753237376e+005 2.783679973213e+005 2.934753888041e+005 3.514286797591e+005 3.355260937414e+005 3.482999015240e+005 3.482985803445e+005 7.654738737214e+004 3.351057218743e+005 1.447569110545e+005 1.869710601571e+005 2.280444185473e+005 0.000000000000e+000 0.000000000000e+000 3.830785171754e+005 3.830850760478e+005 0.000000000000e+000 3.795984665272e+005 0.000000000000e+000 0.000000000000e+000 3.781764608425e+005 0.000000000000e+000 3.760067990748e+005 3.796097855943e+005 3.253198706668e+005 3.062835590747e+005 3.609598033957e+005 3.759143951332e+005 3.259294827657e+005 3.673525573367e+005 3.674951622582e+005 3.062990695830e+005 3.716232922939e+005 3.214352961785e+005 3.147041475867e+005 3.717835400294e+005 3.421255879582e+005 2.014334392867e+005 1.683854325530e+005 1.204006295977e+005 0.000000000000e+000 0.000000000000e+000 2.167966813419e+005 3.015301868172e+005 2.852866254214e+005 2.695645887568e+005 2.516601825205e+005 3.188236830182e+005 3.674306825067e+005 3.116050306601e+005 3.183979992114e+005 0.000000000000e+000 0.000000000000e+000 3.573320960708e+005 3.315466390808e+005 3.782067292179e+005 3.802634600001e+005 0.000000000000e+000 3.716800134280e+005 2.352076679050e+005 2.584295307932e+005 2.752714271749e+005 2.903058677108e+005 2.090890415013e+005 2.094840289182e+005 2.315319698737e+005 1.748816873890e+005 1.325713496000e+005 3.262656500509e+005 3.705361207248e+004 3.386058012621e+005 0.000000000000e+000 3.510112819032e+005 0.000000000000e+000 0.000000000000e+000 3.668146924973e+004 1.325067496360e+005 1.760158032369e+005 3.510273150498e+005 3.386148495590e+005 2.902795887281e+005 2.752830094449e+005 2.584411664159e+005 0.000000000000e+000 3.607664599621e+005 3.023450949549e+005 0.000000000000e+000 0.000000000000e+000 0.000000000000e+000 3.579810270002e+005 3.616198128910e+005 3.759928697319e+005 3.149969066391e+005 0.000000000000e+000 0.000000000000e+000 1.081926287148e+005 1.615001588620e+005 1.982205561041e+005 3.553301813460e+005 3.425107238985e+005 3.324368984904e+005 2.451761672828e+005 2.823362955273e+005 2.988356028425e+005 2.664075694280e+005 2.203925914483e+005 0.000000000000e+000 0.000000000000e+000 0.000000000000e+000 0.000000000000e+000 1.355831936719e+005 1.793473687068e+005 3.385245144366e+005 2.903393609297e+005 2.743680439932e+005 2.552337745015e+005 3.824644290742e+005 3.184733827962e+005 2.094168738693e+005 2.091026137403e+005 3.056838750029e+005 0.000000000000e+000 3.856672400460e+005 3.287431692790e+005 3.012543151864e+005 1.940834255224e+005 1.581231400772e+005 1.031732009613e+005 0.000000000000e+000 0.000000000000e+000 3.328521540103e+005 3.445450145198e+005 3.552555601300e+005 2.657894232105e+005 2.451397386496e+005 2.984124860897e+005 2.822141888666e+005 0.000000000000e+000 0.000000000000e+000 2.822108401228e+005 2.657731643413e+005 1.031232032988e+005 2.451426287970e+005 1.580744215209e+005 1.940065678293e+005 3.445686187902e+005 2.206921127819e+005 2.207503746650e+005 3.672201660307e+005 3.223309151705e+005 3.694401369019e+005 2.992266597154e+005 3.157848575151e+005 0.000000000000e+000 0.000000000000e+000 3.108159797072e+005 3.073305273627e+005 3.154157528647e+005 2.048670384133e+005 2.356901603009e+005 2.316499849974e+005 2.122041457874e+005 2.517572320144e+005 2.702187170161e+005 2.894810719500e+005 1.822696249789e+005 3.487197232379e+005 3.378288391683e+005 0.000000000000e+000 6.842369760526e+004 1.414463089504e+005 0.000000000000e+000 3.487172650311e+005 6.848423073239e+004 3.378254922439e+005 2.894805090326e+005 2.701979082161e+005 2.521411973080e+005 1.414520295952e+005 1.822755129104e+005 3.825592195209e+005 3.758681387144e+005 0.000000000000e+000 3.825519528530e+005 2.350477810284e+005 2.351387958861e+005 3.490010096787e+005 3.490061350770e+005 4.953481983333e+004 5.001432952122e+004 0.000000000000e+000 3.715820081326e+005 3.781089188655e+005 3.607499524517e+005 3.696922072267e+005 0.000000000000e+000 3.856702042943e+005 0.000000000000e+000 3.856682268388e+005 3.737061855272e+005 0.000000000000e+000 0.000000000000e+000 1.796466119703e+005 1.350999395109e+005 3.384481831642e+005 2.553240637958e+005 2.905436893066e+005 2.747238098953e+005 0.000000000000e+000 3.650469254167e+005 3.650045755811e+005 3.760074871450e+005 3.066722337916e+005 3.254782891996e+005 3.760281426064e+005 3.613621097552e+005 3.551532594172e+005 3.215812023628e+005 3.644965607792e+005 0.000000000000e+000 0.000000000000e+000 3.245082130667e+005 3.070807457778e+005 0.000000000000e+000 3.263781109407e+005 3.069396790992e+005 3.108943005912e+005 0.000000000000e+000 3.576097041895e+005 0.000000000000e+000 2.859049593374e+005 2.691060439176e+005 2.520012267853e+005 2.131537428952e+005 3.423473426223e+005 1.168550576962e+005 3.314791124346e+005 1.690262780701e+005 2.053450208554e+005 0.000000000000e+000 3.674840518261e+005 3.116928845914e+005 3.182619621563e+005 3.262246119506e+005 3.718158382616e+005 0.000000000000e+000 3.856711908586e+005 0.000000000000e+000 3.858115559684e+005 3.782449388881e+005 3.611251623154e+005 3.160720248622e+005 3.215658777584e+005 0.000000000000e+000 3.331011067500e+005 2.980216176675e+005 3.650156464418e+005 3.066012996941e+005 3.695558168475e+005 1.905987318073e+005 1.505638986418e+005 8.766984801909e+004 3.333373302650e+005 3.452774054083e+005 7.561122856334e+004 0.000000000000e+000 1.446430668456e+005 1.074614591105e+004 1.868531949479e+005 3.483354830515e+005 3.351420233546e+005 3.509317544715e+005 2.934330764168e+005 2.594661013747e+005 2.757303108934e+005 2.388914973401e+005 0.000000000000e+000 0.000000000000e+000 3.517369688272e+005 2.276885076778e+005 2.940155466793e+005 2.791198350342e+005 2.597426154022e+005 2.434725241040e+005 2.281354729421e+005 2.207252443219e+005 2.451323136159e+005 2.822164612292e+005 2.658067929775e+005 2.984159938844e+005 0.000000000000e+000 0.000000000000e+000 1.030821669313e+005 1.940292182584e+005 1.580382370660e+005 3.552481878058e+005 3.445677089547e+005 3.328789712868e+005 3.255338469295e+005 3.615041473125e+005 0.000000000000e+000 3.782386510650e+005 2.282792062432e+005 2.387586960566e+005 2.593651397578e+005 2.781499947046e+005 2.933205633938e+005 1.612490734510e+004 0.000000000000e+000 3.508338107184e+005 7.392160769437e+004 1.445093584054e+005 1.867046039952e+005 3.485276964337e+005 3.351878276772e+005 3.156380818167e+005 0.000000000000e+000 3.185353789061e+005 0.000000000000e+000 2.238798973347e+005 2.206229303224e+005 2.449298747002e+005 2.654714474674e+005 2.819768710137e+005 2.980970433377e+005 0.000000000000e+000 0.000000000000e+000 1.044804093047e+005 1.618756159649e+005 1.935836886036e+005 3.444584719073e+005 1.941539747718e+005 2.820887897855e+005 2.634302303567e+005 2.449810642806e+005 1.581721406765e+005 1.032173031686e+005 3.328168993636e+005 0.000000000000e+000 3.445229652999e+005 0.000000000000e+000 3.552525749013e+005 3.696788780094e+005 0.000000000000e+000 3.548590639559e+005 0.000000000000e+000 2.790553457808e+005 2.441012994712e+005 2.624325119964e+005 2.944665123828e+005 3.444917217877e+005 9.398563129372e+004 3.328030667915e+005 1.538920420263e+005 1.903381283510e+005 2.241378718142e+005 3.781473641735e+005 0.000000000000e+000 3.856716331814e+005 0.000000000000e+000 0.000000000000e+000 0.000000000000e+000 3.186943080874e+005 3.118513412415e+005 3.651625289915e+005 3.551898191785e+005 0.000000000000e+000 3.777548789072e+005 0.000000000000e+000 0.000000000000e+000 3.612765726039e+005 2.054157973585e+005 1.727016073125e+005 3.288343319226e+005 1.267260231748e+005 3.417434208747e+005 2.519101436751e+005 2.691004073748e+005 2.858358328963e+005 2.131671030670e+005 0.000000000000e+000 3.578657640268e+005 0.000000000000e+000 3.262395532001e+005 3.057523072665e+005 3.189409476521e+005 3.738296742101e+005 3.759899556638e+005 0.000000000000e+000 3.822720170850e+005 0.000000000000e+000 3.822725782281e+005 2.979721607254e+005 3.330843710077e+005 3.012641981468e+005 3.717121014923e+005 0.000000000000e+000 3.824728237489e+005 3.219371207083e+005 3.112814180733e+005 3.190437505015e+005 3.651854437636e+005 3.737277870613e+005 3.695248285010e+005 3.292488268540e+005 3.737338293846e+005 3.675272696886e+005 3.188414552405e+005 3.761035992708e+005 3.739163843227e+005 3.155335590135e+005 3.249067739155e+005 3.111032753486e+005 3.216546341270e+005 0.000000000000e+000 3.800370756830e+005 3.577290205868e+005 2.203278122588e+005 2.122737278776e+005 0.000000000000e+000 0.000000000000e+000 0.000000000000e+000 0.000000000000e+000 1.233046472134e+005 1.726466089901e+005 3.417596256813e+005 1.976413928118e+005 2.048053712478e+005 2.988409625098e+005 3.013882593012e+005 2.850687141746e+005 2.894172471382e+005 2.701235933943e+005 2.659815517216e+005 2.483943752765e+005 2.524558514765e+005 3.802981323722e+005 0.000000000000e+000 0.000000000000e+000 0.000000000000e+000 0.000000000000e+000 3.825851945039e+005 0.000000000000e+000 2.393320083092e+005 2.595383813378e+005 2.789250502053e+005 2.932501128007e+005 2.278563017690e+005 2.161083279282e+005 2.020064202512e+005 1.691860403307e+005 3.290154840387e+005 1.176566940177e+005 3.422853644844e+005 0.000000000000e+000 3.517052067869e+005 0.000000000000e+000 0.000000000000e+000 0.000000000000e+000 0.000000000000e+000 1.176783289090e+005 1.69184