<?xml version="1.0"?>
<VTKFile type="UnstructuredGrid" version="0.1" byte_order="LittleEndian">
  <UnstructuredGrid>
    <Piece NumberOfPoints="2604" NumberOfCells="4910">
      <Points>
        <DataArray type="Float64" NumberOfComponents="3" format="ascii">
          0.000000000000e+000 0.000000000000e+000 0.000000000000e+000
          2.000000000000e+002 0.000000000000e+000 0.000000000000e+000
          2.000000000000e+002 2.000000000000e+001 0.000000000000e+000
          0.000000000000e+000 2.000000000000e+001 0.000000000000e+000
          1.492537313427e+000 0.000000000000e+000 0.000000000000e+000
          2.985074626854e+000 0.000000000000e+000 0.000000000000e+000
          4.477611940281e+000 0.000000000000e+000 0.000000000000e+000
          5.970149253708e+000 0.000000000000e+000 0.000000000000e+000
          7.462686567135e+000 0.000000000000e+000 0.000000000000e+000
          8.955223880561e+000 0.000000000000e+000 0.000000000000e+000
          1.044776119399e+001 0.000000000000e+000 0.000000000000e+000
          1.194029850741e+001 0.000000000000e+000 0.000000000000e+000
          1.343283582084e+001 0.000000000000e+000 0.000000000000e+000
          1.492537313427e+001 0.000000000000e+000 0.000000000000e+000
          1.641791044770e+001 0.000000000000e+000 0.000000000000e+000
          1.791044776112e+001 0.000000000000e+000 0.000000000000e+000
          1.940298507455e+001 0.000000000000e+000 0.000000000000e+000
          2.089552238798e+001 0.000000000000e+000 0.000000000000e+000
          2.238805970141e+001 0.000000000000e+000 0.000000000000e+000
          2.388059701484e+001 0.000000000000e+000 0.000000000000e+000
          2.537313432826e+001 0.000000000000e+000 0.000000000000e+000
          2.686567164169e+001 0.000000000000e+000 0.000000000000e+000
          2.835820895511e+001 0.000000000000e+000 0.000000000000e+000
          2.985074626854e+001 0.000000000000e+000 0.000000000000e+000
          3.134328358196e+001 0.000000000000e+000 0.000000000000e+000
          3.283582089539e+001 0.000000000000e+000 0.000000000000e+000
          3.432835820881e+001 0.000000000000e+000 0.000000000000e+000
          3.582089552224e+001 0.000000000000e+000 0.000000000000e+000
          3.731343283566e+001 0.000000000000e+000 0.000000000000e+000
          3.880597014909e+001 0.000000000000e+000 0.000000000000e+000
          4.029850746251e+001 0.000000000000e+000 0.000000000000e+000
          4.179104477594e+001 0.000000000000e+000 0.000000000000e+000
          4.328358208936e+001 0.000000000000e+000 0.000000000000e+000
          4.477611940279e+001 0.000000000000e+000 0.000000000000e+000
          4.626865671621e+001 0.000000000000e+000 0.000000000000e+000
          4.776119402964e+001 0.000000000000e+000 0.000000000000e+000
          4.925373134306e+001 0.000000000000e+000 0.000000000000e+000
          5.074626865649e+001 0.000000000000e+000 0.000000000000e+000
          5.223880596991e+001 0.000000000000e+000 0.000000000000e+000
          5.373134328334e+001 0.000000000000e+000 0.000000000000e+000
          5.522388059676e+001 0.000000000000e+000 0.000000000000e+000
          5.671641791019e+001 0.000000000000e+000 0.000000000000e+000
          5.820895522361e+001 0.000000000000e+000 0.000000000000e+000
          5.970149253704e+001 0.000000000000e+000 0.000000000000e+000
          6.119402985046e+001 0.000000000000e+000 0.000000000000e+000
          6.268656716389e+001 0.000000000000e+000 0.000000000000e+000
          6.417910447732e+001 0.000000000000e+000 0.000000000000e+000
          6.567164179075e+001 0.000000000000e+000 0.000000000000e+000
          6.716417910418e+001 0.000000000000e+000 0.000000000000e+000
          6.865671641761e+001 0.000000000000e+000 0.000000000000e+000
          7.014925373104e+001 0.000000000000e+000 0.000000000000e+000
          7.164179104447e+001 0.000000000000e+000 0.000000000000e+000
          7.313432835790e+001 0.000000000000e+000 0.000000000000e+000
          7.462686567133e+001 0.000000000000e+000 0.000000000000e+000
          7.611940298476e+001 0.000000000000e+000 0.000000000000e+000
          7.761194029819e+001 0.000000000000e+000 0.000000000000e+000
          7.910447761162e+001 0.000000000000e+000 0.000000000000e+000
          8.059701492505e+001 0.000000000000e+000 0.000000000000e+000
          8.208955223848e+001 0.000000000000e+000 0.000000000000e+000
          8.358208955191e+001 0.000000000000e+000 0.000000000000e+000
          8.507462686534e+001 0.000000000000e+000 0.000000000000e+000
          8.656716417877e+001 0.000000000000e+000 0.000000000000e+000
          8.805970149220e+001 0.000000000000e+000 0.000000000000e+000
          8.955223880563e+001 0.000000000000e+000 0.000000000000e+000
          9.104477611907e+001 0.000000000000e+000 0.000000000000e+000
          9.253731343250e+001 0.000000000000e+000 0.000000000000e+000
          9.402985074593e+001 0.000000000000e+000 0.000000000000e+000
          9.552238805936e+001 0.000000000000e+000 0.000000000000e+000
          9.701492537279e+001 0.000000000000e+000 0.000000000000e+000
          9.850746268622e+001 0.000000000000e+000 0.000000000000e+000
          9.999999999965e+001 0.000000000000e+000 0.000000000000e+000
          1.014925373131e+002 0.000000000000e+000 0.000000000000e+000
          1.029850746265e+002 0.000000000000e+000 0.000000000000e+000
          1.044776119399e+002 0.000000000000e+000 0.000000000000e+000
          1.059701492534e+002 0.000000000000e+000 0.000000000000e+000
          1.074626865668e+002 0.000000000000e+000 0.000000000000e+000
          1.089552238802e+002 0.000000000000e+000 0.000000000000e+000
          1.104477611937e+002 0.000000000000e+000 0.000000000000e+000
          1.119402985071e+002 0.000000000000e+000 0.000000000000e+000
          1.134328358205e+002 0.000000000000e+000 0.000000000000e+000
          1.149253731340e+002 0.000000000000e+000 0.000000000000e+000
          1.164179104474e+002 0.000000000000e+000 0.000000000000e+000
          1.179104477608e+002 0.000000000000e+000 0.000000000000e+000
          1.194029850742e+002 0.000000000000e+000 0.000000000000e+000
          1.208955223877e+002 0.000000000000e+000 0.000000000000e+000
          1.223880597011e+002 0.000000000000e+000 0.000000000000e+000
          1.238805970145e+002 0.000000000000e+000 0.000000000000e+000
          1.253731343280e+002 0.000000000000e+000 0.000000000000e+000
          1.268656716414e+002 0.000000000000e+000 0.000000000000e+000
          1.283582089548e+002 0.000000000000e+000 0.000000000000e+000
          1.298507462683e+002 0.000000000000e+000 0.000000000000e+000
          1.313432835817e+002 0.000000000000e+000 0.000000000000e+000
          1.328358208952e+002 0.000000000000e+000 0.000000000000e+000
          1.343283582086e+002 0.000000000000e+000 0.000000000000e+000
          1.358208955220e+002 0.000000000000e+000 0.000000000000e+000
          1.373134328355e+002 0.000000000000e+000 0.000000000000e+000
          1.388059701489e+002 0.000000000000e+000 0.000000000000e+000
          1.402985074624e+002 0.000000000000e+000 0.000000000000e+000
          1.417910447758e+002 0.000000000000e+000 0.000000000000e+000
          1.432835820892e+002 0.000000000000e+000 0.000000000000e+000
          1.447761194027e+002 0.000000000000e+000 0.000000000000e+000
          1.462686567161e+002 0.000000000000e+000 0.000000000000e+000
          1.477611940296e+002 0.000000000000e+000 0.000000000000e+000
          1.492537313430e+002 0.000000000000e+000 0.000000000000e+000
          1.507462686564e+002 0.000000000000e+000 0.000000000000e+000
          1.522388059699e+002 0.000000000000e+000 0.000000000000e+000
          1.537313432833e+002 0.000000000000e+000 0.000000000000e+000
          1.552238805968e+002 0.000000000000e+000 0.000000000000e+000
          1.567164179102e+002 0.000000000000e+000 0.000000000000e+000
          1.582089552237e+002 0.000000000000e+000 0.000000000000e+000
          1.597014925371e+002 0.000000000000e+000 0.000000000000e+000
          1.611940298505e+002 0.000000000000e+000 0.000000000000e+000
          1.626865671640e+002 0.000000000000e+000 0.000000000000e+000
          1.641791044774e+002 0.000000000000e+000 0.000000000000e+000
          1.656716417909e+002 0.000000000000e+000 0.000000000000e+000
          1.671641791043e+002 0.000000000000e+000 0.000000000000e+000
          1.686567164177e+002 0.000000000000e+000 0.000000000000e+000
          1.701492537312e+002 0.000000000000e+000 0.000000000000e+000
          1.716417910446e+002 0.000000000000e+000 0.000000000000e+000
          1.731343283581e+002 0.000000000000e+000 0.000000000000e+000
          1.746268656715e+002 0.000000000000e+000 0.000000000000e+000
          1.761194029849e+002 0.000000000000e+000 0.000000000000e+000
          1.776119402984e+002 0.000000000000e+000 0.000000000000e+000
          1.791044776118e+002 0.000000000000e+000 0.000000000000e+000
          1.805970149253e+002 0.000000000000e+000 0.000000000000e+000
          1.820895522387e+002 0.000000000000e+000 0.000000000000e+000
          1.835820895521e+002 0.000000000000e+000 0.000000000000e+000
          1.850746268656e+002 0.000000000000e+000 0.000000000000e+000
          1.865671641790e+002 0.000000000000e+000 0.000000000000e+000
          1.880597014925e+002 0.000000000000e+000 0.000000000000e+000
          1.895522388059e+002 0.000000000000e+000 0.000000000000e+000
          1.910447761194e+002 0.000000000000e+000 0.000000000000e+000
          1.925373134328e+002 0.000000000000e+000 0.000000000000e+000
          1.940298507462e+002 0.000000000000e+000 0.000000000000e+000
          1.955223880597e+002 0.000000000000e+000 0.000000000000e+000
          1.970149253731e+002 0.000000000000e+000 0.000000000000e+000
          1.985074626866e+002 0.000000000000e+000 0.000000000000e+000
          2.000000000000e+002 1.428571428570e+000 0.000000000000e+000
          2.000000000000e+002 2.857142857140e+000 0.000000000000e+000
[...]
      <PointData Scalars="Capillary_Pressure">
        <DataArray type="Float64" Name="Capillary_Pressure" format="ascii">
          3.855328852107e+005 0.000000000000e+000 0.000000000000e+000 3.855351935631e+005 3.857609302690e+005 3.830266662250e+005 3.821647550579e+005 3.802326271767e+005 3.799597326118e+005 3.780640638760e+005 3.760358715081e+005 3.759599098956e+005 3.737903698636e+005 3.736222462735e+005 3.717471728543e+005 3.693751233336e+005 3.694162405104e+005 3.673984326625e+005 3.669898517731e+005 3.648851190704e+005 3.614891614064e+005 3.612845878799e+005 3.607192007790e+005 3.577130533242e+005 3.573781073730e+005 3.551919328228e+005 3.545675640592e+005 3.514253227158e+005 3.509254647512e+005 3.488594620774e+005 3.482226550556e+005 3.450221659719e+005 3.444972958075e+005 3.425190206350e+005 3.417833917091e+005 3.381820011949e+005 3.380992804559e+005 3.354896942037e+005 3.330978529429e+005 3.328132417035e+005 3.320192180729e+005 3.288584162927e+005 3.261867611184e+005 3.258158550367e+005 3.221546177653e+005 3.216864507670e+005 3.188556476905e+005 3.183680330009e+005 3.159284868370e+005 3.150218437883e+005 3.109332061895e+005 3.107447464589e+005 3.068881815370e+005 3.063310065771e+005 3.023669857882e+005 3.010038877881e+005 2.988175771893e+005 2.983536522198e+005 2.972260174462e+005 2.934338672069e+005 2.902113811760e+005 2.898410680992e+005 2.857921445730e+005 2.850901146339e+005 2.821671518142e+005 2.787897011370e+005 2.757779869051e+005 2.751599723897e+005 2.706087918812e+005 2.690078571882e+005 2.663950424629e+005 2.632431656765e+005 2.623861758187e+005 2.595088980471e+005 2.557739117620e+005 2.524439928109e+005 2.518986222785e+005 2.483540389697e+005 2.451104692469e+005 2.437984650598e+005 2.380924958047e+005 2.347104973926e+005 2.315721503228e+005 2.279659655572e+005 2.244317177198e+005 2.207021056431e+005 2.199745898816e+005 2.164616005526e+005 2.125754079553e+005 2.090347727026e+005 2.018114027464e+005 1.979381910461e+005 1.940145934600e+005 1.896523491318e+005 1.870109361566e+005 1.794335465411e+005 1.749103247460e+005 1.724248877025e+005 1.642674347793e+005 1.580356715403e+005 1.549605353690e+005 1.448200292368e+005 1.382775386689e+005 1.311884507228e+005 1.224086483755e+005 1.131793846002e+005 1.030938585463e+005 9.086576742890e+004 7.737033384667e+004 6.050382853419e+004 3.852834360584e+004 7.012097908182e+003 0.000000000000e+000 0.000000000000e+000 0.000000000000e+000 0.000000000000e+000 0.000000000000e+000 0.000000000000e+000 0.000000000000e+000 0.000000000000e+000 0.000000000000e+000 0.000000000000e+000 0.000000000000e+000 0.000000000000e+000 0.000000000000e+000 0.000000000000e+000 0.000000000000e+000 0.000000000000e+000 0.000000000000e+000 0.000000000000e+000 0.000000000000e+000 0.000000000000e+000 0.000000000000e+000 0.000000000000e+000 0.000000000000e+000 0.000000000000e+000 0.000000000000e+000 0.000000000000e+000 0.000000000000e+000 0.000000000000e+000 0.000000000000e+000 0.000000000000e+000 0.000000000000e+000 0.000000000000e+000 0.000000000000e+000 0.000000000000e+000 0.000000000000e+000 0.000000000000e+000 0.000000000000e+000 0.000000000000e+000 0.000000000000e+000 0.000000000000e+000 0.000000000000e+000 0.000000000000e+000 0.000000000000e+000 0.000000000000e+000 0.000000000000e+000 0.000000000000e+000 0.000000000000e+000 0.000000000000e+000 0.000000000000e+000 0.000000000000e+000 0.000000000000e+000 0.000000000000e+000 0.000000000000e+000 0.000000000000e+000 0.000000000000e+000 0.000000000000e+000 0.000000000000e+000 0.000000000000e+000 0.000000000000e+000 0.000000000000e+000 0.000000000000e+000 0.000000000000e+000 0.000000000000e+000 7.007622051543e+003 3.851629229489e+004 6.047413154221e+004 7.736162337264e+004 9.085057097883e+004 1.030971406322e+005 1.132006207240e+005 1.223969192758e+005 1.311860577167e+005 1.382709952358e+005 1.448127382650e+005 1.549571877527e+005 1.580274454332e+005 1.642503566610e+005 1.724181638161e+005 1.749071976608e+005 1.794390156002e+005 1.870007895196e+005 1.896483042797e+005 1.940048083152e+005 1.979201428034e+005 2.017936162701e+005 2.090269773957e+005 2.125810607792e+005 2.164662823894e+005 2.199730895789e+005 2.207007437100e+005 2.244400596810e+005 2.279767667477e+005 2.315625260428e+005 2.347155803169e+005 2.380710577364e+005 2.437898688104e+005 2.450937781926e+005 2.483591189992e+005 2.518838589968e+005 2.524321360472e+005 2.557604814579e+005 2.594971577436e+005 2.624006968607e+005 2.657431737852e+005 2.663949599386e+005 2.689908494011e+005 2.705854611036e+005 2.751729653919e+005 2.783517114402e+005 2.787761311270e+005 2.821017742425e+005 2.850939761675e+005 2.857956371558e+005 2.898406550904e+005 2.902187997137e+005 2.934634809080e+005 2.972228303771e+005 2.983582306027e+005 2.988328057710e+005 3.010257360193e+005 3.053701786525e+005 3.063518953533e+005 3.068887996294e+005 3.107511969875e+005 3.109750144094e+005 3.150032656971e+005 3.158985574065e+005 3.183554492963e+005 3.188362411930e+005 3.216677141442e+005 3.249303107865e+005 3.258155708504e+005 3.261741498836e+005 3.288531691606e+005 3.320218475976e+005 3.328158034310e+005 3.330900950364e+005 3.354913435162e+005 3.381000973812e+005 3.381801647968e+005 3.417804637509e+005 3.425152231520e+005 3.444948031830e+005 3.450253149123e+005 3.482203448234e+005 3.488584916328e+005 3.509246098438e+005 3.514194275925e+005 3.545688155833e+005 3.551863331806e+005 3.573782703498e+005 3.577170646624e+005 3.607190972983e+005 3.612877315505e+005 3.614975419282e+005 3.648752035885e+005 3.669867625507e+005 3.673993985823e+005 3.694245159626e+005 3.693668718938e+005 3.717271378687e+005 3.717856430813e+005 3.738075864400e+005 3.759566323464e+005 3.760291511869e+005 3.780708314863e+005 3.799659817872e+005 3.802461714239e+005 3.821240375544e+005 3.830290587233e+005 3.857604869407e+005 3.855347108407e+005 3.855322840190e+005 3.855357585991e+005 3.855345945223e+005 3.855321141833e+005 3.855332424829e+005 3.855336415748e+005 3.855318188090e+005 3.855325114055e+005 3.855344282365e+005 3.855339677763e+005 3.855315932711e+005 3.855323093403e+005 0.000000000000e+000 3.780464886828e+005 0.000000000000e+000 0.000000000000e+000 5.159472124853e+004 1.351182024028e+005 1.794672452018e+005 3.610778623434e+005 2.086529991469e+005 3.488936094373e+005 3.383651914619e+005 3.260818893978e+005 3.059861820589e+005 2.904541573584e+005 2.746360467124e+005 2.553936304631e+005 2.350553926518e+005 3.696127180191e+005 3.159173491166e+005 2.206854555016e+005 2.237087025193e+005 2.450892150500e+005 2.657502407983e+005 2.820853975204e+005 2.983604947785e+005 0.000000000000e+000 0.000000000000e+000 1.018848202710e+005 2.983563836920e+005 2.822762662114e+005 2.655962277330e+005 2.447268358785e+005 1.578424753655e+005 1.939982776235e+005 3.552010576203e+005 3.445696174591e+005 3.327444274489e+005 1.939402355255e+005 1.580104619764e+005 1.030761598421e+005 0.000000000000e+000 0.000000000000e+000 3.328407245225e+005 3.444991384602e+005 3.551782863207e+005 0.000000000000e+000 0.000000000000e+000 3.189543861435e+005 3.112968246221e+005 3.736194784855e+005 3.648760959548e+005 0.000000000000e+000 3.802406105806e+005 0.000000000000e+000 3.802487670304e+005 3.733795341536e+005 3.649219494699e+005 3.218164662155e+005 3.105090739023e+005 0.000000000000e+000 2.350465252480e+005 0.000000000000e+000 2.553889342327e+005 2.746266645320e+005 2.904383970763e+005 3.056111446383e+005 2.087045057953e+005 4.993472379549e+004 1.342256854718e+005 1.794251388926e+005 3.489310485243e+005 3.384330589162e+005 2.096389158195e+005 1.795809437628e+005 1.350396589628e+005 5.049946788279e+004 2.904539423794e+005 2.746204907785e+005 2.554118823609e+005 0.000000000000e+000 2.350332230988e+005 0.000000000000e+000 3.261489033339e+005 3.383878972135e+005 3.489246157107e+005 3.610801270363e+005 0.000000000000e+000 0.000000000000e+000 3.760279157123e+005 3.607080636114e+005 3.021886550317e+005 3.283474597876e+005 0.000000000000e+000 3.821788415592e+005 3.695984355290e+005 3.780105935421e+005 3.696148796323e+005 3.159642227491e+005 3.214331119096e+005 3.109962002310e+005 3.738006229927e+005 3.648448390120e+005 3.158892710174e+005 0.000000000000e+000 9.283352905052e+004 0.000000000000e+000 1.550731373051e+005 0.000000000000e+000 1.900780084552e+005 2.439957616119e+005 2.789603594323e+005 2.943788384239e+005 2.625096280252e+005 3.545846998382e+005 3.330361650512e+005 3.445336340177e+005 2.243139336136e+005 3.159236404907e+005 0.000000000000e+000 3.830161482562e+005 0.000000000000e+000 3.830117791261e+005 2.394695553025e+005 2.596274184794e+005 2.789856962941e+005 2.938880604153e+005 2.018294768076e+005 2.278096440555e+005 2.165304566626e+005 1.689357056900e+005 3.290517477798e+005 1.167487716579e+005 3.423039735554e+005 0.000000000000e+000 3.517111452323e+005 0.000000000000e+000 0.000000000000e+000 0.000000000000e+000 0.000000000000e+000 0.000000000000e+000 1.175588312254e+005 8.669769426447e+004 1.690760449141e+005 1.516519509275e+005 3.516487491635e+005 1.905073727329e+005 2.018478980102e+005 3.422572518335e+005 3.452108956509e+005 2.938714019787e+005 2.789653847768e+005 2.595550142356e+005 2.854185687666e+005 2.667425822525e+005 2.434066530743e+005 2.480092872127e+005 3.331407821799e+005 2.165116981065e+005 2.275544034399e+005 0.000000000000e+000 3.575476609230e+005 0.000000000000e+000 3.451384845672e+005 8.871765466817e+004 3.332241880002e+005 1.510539645466e+005 3.012265866979e+005 2.855520211397e+005 2.668810333182e+005 2.511805027715e+005 1.906643379863e+005 3.695938274113e+005 0.000000000000e+000 0.000000000000e+000 3.103513266461e+005 3.243768761797e+005 3.646915468876e+005 2.166287566596e+005 2.667299182226e+005 2.479512141580e+005 2.853712956658e+005 3.012074385051e+005 3.575185147397e+005 3.423544979824e+005 0.000000000000e+000 3.290826547144e+005 0.000000000000e+000 1.182017977050e+005 2.017136970417e+005 1.651557746340e+005 3.573846293580e+005 0.000000000000e+000 0.000000000000e+000 3.145116079674e+005 3.737927563568e+005 0.000000000000e+000 2.163247546893e+005 2.052070859593e+005 1.725341408411e+005 3.286746573326e+005 1.231724885632e+005 3.417378904030e+005 2.858584332865e+005 2.690450022226e+005 2.519645643127e+005 0.000000000000e+000 3.577126215910e+005 0.000000000000e+000 3.671759830021e+005 3.014487428351e+005 0.000000000000e+000 0.000000000000e+000 0.000000000000e+000 2.987101278556e+005 3.321069248226e+005 3.068166940524e+005 3.250707831708e+005 3.799742914010e+005 3.614529892711e+005 3.759242510342e+005 3.716628717982e+005 3.614486073624e+005 2.381012039408e+005 2.595118869555e+005 2.783794059744e+005 2.934758044186e+005 5.120888774062e+003 3.514288742147e+005 0.000000000000e+000 2.280301631614e+005 1.870267318528e+005 8.468808225500e+003 1.447069217847e+005 0.000000000000e+000 7.730902706430e+004 2.386569652533e+005 2.595310236780e+005 2.783199855059e+005 2.934226281450e+005 3.513626778388e+005 3.354626305417e+005 3.482351580107e+005 3.482337197733e+005 7.649371370046e+004 3.350420597598e+005 1.447227244702e+005 1.869378083167e+005 2.280054123322e+005 0.000000000000e+000 0.000000000000e+000 3.830137594183e+005 3.830204008131e+005 0.000000000000e+000 3.795332541625e+005 0.000000000000e+000 0.000000000000e+000 3.781109232220e+005 0.000000000000e+000 3.759409555130e+005 3.795444758781e+005 3.252594813887e+005 3.062264139905e+005 3.608932203064e+005 3.758485620661e+005 3.258686184233e+005 3.672863486173e+005 3.674291012234e+005 3.062428317547e+005 3.715571923809e+005 3.213758845802e+005 3.146462973516e+005 3.717172894088e+005 3.420617271692e+005 2.013982462238e+005 1.683523614765e+005 1.203631140165e+005 0.000000000000e+000 0.000000000000e+000 2.167604098378e+005 3.014749304329e+005 2.852348847949e+005 2.695174075147e+005 2.516177166396e+005 3.187643614840e+005 3.673644651170e+005 3.115467224092e+005 3.183381145063e+005 0.000000000000e+000 0.000000000000e+000 3.572660000832e+005 3.314856054625e+005 3.781411438652e+005 3.801982659761e+005 0.000000000000e+000 3.716138455624e+005 2.351669500594e+005 2.583851090101e+005 2.752228306421e+005 2.902522892653e+005 2.090544004956e+005 2.094484372424e+005 2.314918982951e+005 1.748483152582e+005 1.325363701921e+005 3.262042033697e+005 3.696867201781e+004 3.385417276912e+005 0.000000000000e+000 3.509460701031e+005 0.000000000000e+000 0.000000000000e+000 3.659612663217e+004 1.324718496525e+005 1.759830537098e+005 3.509621333791e+005 3.385506668010e+005 2.902261877593e+005 2.752345935744e+005 2.583970558551e+005 0.000000000000e+000 3.607006272639e+005 3.022888682803e+005 0.000000000000e+000 0.000000000000e+000 0.000000000000e+000 3.579145150747e+005 3.615535049987e+005 3.759270640556e+005 3.149389054021e+005 0.000000000000e+000 0.000000000000e+000 1.081519175865e+005 1.614670105243e+005 1.981870853199e+005 3.552640697542e+005 3.424461170530e+005 3.323746903628e+005 2.451337106051e+005 2.822864612260e+005 2.987810987428e+005 2.663613237967e+005 2.203559349820e+005 0.000000000000e+000 0.000000000000e+000 0.000000000000e+000 0.000000000000e+000 1.355486727828e+005 1.793147690799e+005 3.384609188647e+005 2.902877339241e+005 2.743206258643e+005 2.551904445240e+005 3.823997689367e+005 3.184151916507e+005 2.093812731780e+005 2.090662847786e+005 3.056280684411e+005 0.000000000000e+000 3.856033289608e+005 3.286813075368e+005 3.011988008566e+005 1.940483106936e+005 1.580897480461e+005 1.031310718913e+005 0.000000000000e+000 0.000000000000e+000 3.327899356747e+005 3.444803257628e+005 3.551896919081e+005 2.657432801019e+005 2.450984101124e+005 2.983583384415e+005 2.821638890254e+005 0.000000000000e+000 0.000000000000e+000 2.821597064311e+005 2.657270156522e+005 1.030810370720e+005 2.451013331252e+005 1.580410956106e+005 1.939717435178e+005 3.445038113034e+005 2.206545033423e+005 2.207128360975e+005 3.671541547277e+005 3.222705792050e+005 3.693742551929e+005 2.991713459304e+005 3.157262167664e+005 0.000000000000e+000 0.000000000000e+000 3.107580741494e+005 3.072732380389e+005 3.153573615320e+005 2.048314103552e+005 2.356502262754e+005 2.316110225490e+005 2.121675140999e+005 2.517134011092e+005 2.701708955594e+005 2.894294613917e+005 1.822358592554e+005 3.486546795597e+005 3.377658094332e+005 0.000000000000e+000 6.836517331621e+004 1.414119438493e+005 0.000000000000e+000 3.486521878391e+005 6.842577008757e+004 3.377623720419e+005 2.894285699381e+005 2.701499324058e+005 2.520974793665e+005 1.414177035201e+005 1.822420255754e+005 3.824944642113e+005 3.758021919959e+005 0.000000000000e+000 3.824872330063e+005 2.350087587380e+005 2.350991768514e+005 3.489353614816e+005 3.489406842698e+005 4.946159929096e+004 4.994178945966e+004 0.000000000000e+000 3.715155530894e+005 3.780435026898e+005 3.606842237971e+005 3.696262027792e+005 0.000000000000e+000 3.856061787169e+005 0.000000000000e+000 3.856042406846e+005 3.736400175440e+005 0.000000000000e+000 0.000000000000e+000 1.796138155060e+005 1.350648620325e+005 3.383845349524e+005 2.552805254650e+005 2.904916285167e+005 2.746760659167e+005 0.000000000000e+000 3.649808894700e+005 3.649384434418e+005 3.759415267229e+005 3.066155685799e+005 3.254178408951e+005 3.759623476066e+005 3.612957584827e+005 3.550874612616e+005 3.215215082967e+005 3.644304622188e+005 0.000000000000e+000 0.000000000000e+000 3.244478544573e+005 3.070237221397e+005 0.000000000000e+000 3.263169842880e+005 3.068824801042e+005 3.108369708636e+005 0.000000000000e+000 3.575438183664e+005 0.000000000000e+000 2.858534116858e+005 2.690577332696e+005 2.519589362832e+005 2.131183534252e+005 3.422831312756e+005 1.168167124459e+005 3.314180424510e+005 1.689939889789e+005 2.053104760616e+005 0.000000000000e+000 3.674182001032e+005 3.116344864912e+005 3.182026599260e+005 3.261634695411e+005 3.717492255873e+005 0.000000000000e+000 3.856070537654e+005 0.000000000000e+000 3.857475408878e+005 3.781793835965e+005 3.610592482494e+005 3.160129788363e+005 3.215064332231e+005 0.000000000000e+000 3.330382407178e+005 2.979677664043e+005 3.649496055670e+005 3.065448003935e+005 3.694911365083e+005 1.905661935443e+005 1.505302829512e+005 8.762187910167e+004 3.332737526957e+005 3.452121058909e+005 7.555705223136e+004 0.000000000000e+000 1.446089776403e+005 1.063681949271e+004 1.868201128179e+005 3.482707827874e+005 3.350778758239e+005 3.508657389307e+005 2.933803392637e+005 2.594224105800e+005 2.756813767866e+005 2.388508578672e+005 0.000000000000e+000 0.000000000000e+000 3.516710277815e+005 2.276505972866e+005 2.939622647963e+005 2.790697851316e+005 2.596956786178e+005 2.434324010135e+005 2.280961254828e+005 2.206875869412e+005 2.450910111546e+005 2.821665733174e+005 2.657620241584e+005 2.983618301186e+005 0.000000000000e+000 0.000000000000e+000 1.030401060576e+005 1.939945498785e+005 1.580049516101e+005 3.551822771069e+005 3.445027585608e+005 3.328164042146e+005 3.254729708632e+005 3.614379557082e+005 0.000000000000e+000 3.781731022233e+005 2.282403768103e+005 2.387182765667e+005 2.593213809621e+005 2.781012934034e+005 2.932679995332e+005 1.601935484840e+004 0.000000000000e+000 3.507679187375e+005 7.386637296388e+004 1.444753926580e+005 1.866711667775e+005 3.484628187087e+005 3.351242465046e+005 3.155777628043e+005 0.000000000000e+000 3.184766614072e+005 0.000000000000e+000 2.238426805348e+005 2.205857139330e+005 2.448889820555e+005 2.654244956958e+005 2.819257831407e+005 2.980436685372e+005 0.000000000000e+000 0.000000000000e+000 1.044386681092e+005 1.618431147250e+005 1.935498135150e+005 3.443939470300e+005 1.941200600829e+005 2.820388911782e+005 2.633827613030e+005 2.449397294861e+005 1.581388997643e+005 1.031752106001e+005 3.327545618018e+005 0.000000000000e+000 3.444582944684e+005 0.000000000000e+000 3.551867270368e+005 3.696125336638e+005 0.000000000000e+000 3.547934261829e+005 0.000000000000e+000 2.790067800105e+005 2.440594317777e+005 2.623871833980e+005 2.944121704685e+005 3.444270834305e+005 9.394021406673e+004 3.327393666612e+005 1.538586848965e+005 1.903031705878e+005 2.240997117102e+005 3.780818856679e+005 0.000000000000e+000 3.856076215090e+005 0.000000000000e+000 0.000000000000e+000 0.000000000000e+000 3.186356689941e+005 3.117926459592e+005 3.650962420548e+005 3.551240273051e+005 0.000000000000e+000 3.776893464177e+005 0.000000000000e+000 0.000000000000e+000 3.612103976687e+005 2.053809778246e+005 1.726689229942e+005 3.287727614499e+005 1.266902866247e+005 3.416797403498e+005 2.518675941383e+005 2.690526833170e+005 2.857847634211e+005 2.131311337916e+005 0.000000000000e+000 3.577995214094e+005 0.000000000000e+000 3.261783490639e+005 3.056964350679e+005 3.188806755195e+005 3.737634734765e+005 3.759242940207e+005 0.000000000000e+000 3.822072514587e+005 0.000000000000e+000 3.822078979231e+005 2.979186891119e+005 3.330215847758e+005 3.012083280181e+005 3.716463386701e+005 0.000000000000e+000 3.824079796324e+005 3.218767382429e+005 3.112238849416e+005 3.189834677343e+005 3.651192225882e+005 3.736616705391e+005 3.694581452657e+005 3.291864399331e+005 3.736677308055e+005 3.674611279294e+005 3.187830094085e+005 3.760378461760e+005 3.738502644421e+005 3.154748680169e+005 3.248470192185e+005 3.110458426345e+005 3.215945617462e+005 0.000000000000e+000 3.799718690044e+005 3.576630385392e+005 2.202913630756e+005 2.122371274393e+005 0.000000000000e+000 0.000000000000e+000 0.000000000000e+000 0.000000000000e+000 1.232676077651e+005 1.726140188695e+005 3.416958623339e+005 1.976067121516e+005 2.047701669798e+005 2.987861599928e+005 3.013325487836e+005 2.850167194696e+005 2.893659194874e+005 2.700756283741e+005 2.659339861000e+005 2.483527306840e+005 2.524128953320e+005 3.802330057174e+005 0.000000000000e+000 0.000000000000e+000 0.000000000000e+000 0.000000000000e+000 3.825204644856e+005 0.000000000000e+000 2.392908326024e+005 2.594928812160e+005 2.788756242196e+005 2.931960774909e+005 2.278182024446e+005 2.160720086868e+005 2.019720919647e+005 1.691535992919e+005 3.289535122850e+005 1.176185156370e+005 3.422211942749e+005 0.000000000000e+000 3.516392351294e+005 0.000000000000e+000 0.000000000000e+000 0.000000000000e+000 0.000000000000e+000 1.176401689131e+005 1.69152