<?xml version="1.0"?>
<VTKFile type="UnstructuredGrid" version="0.1" byte_order="LittleEndian">
  <UnstructuredGrid>
    <Piece NumberOfPoints="2604" NumberOfCells="4910">
      <Points>
        <DataArray type="Float64" NumberOfComponents="3" format="ascii">
          0.000000000000e+000 0.000000000000e+000 0.000000000000e+000
          2.000000000000e+002 0.000000000000e+000 0.000000000000e+000
          2.000000000000e+002 2.000000000000e+001 0.000000000000e+000
          0.000000000000e+000 2.000000000000e+001 0.000000000000e+000
          1.492537313427e+000 0.000000000000e+000 0.000000000000e+000
          2.985074626854e+000 0.000000000000e+000 0.000000000000e+000
          4.477611940281e+000 0.000000000000e+000 0.000000000000e+000
          5.970149253708e+000 0.000000000000e+000 0.000000000000e+000
          7.462686567135e+000 0.000000000000e+000 0.000000000000e+000
          8.955223880561e+000 0.000000000000e+000 0.000000000000e+000
          1.044776119399e+001 0.000000000000e+000 0.000000000000e+000
          1.194029850741e+001 0.000000000000e+000 0.000000000000e+000
          1.343283582084e+001 0.000000000000e+000 0.000000000000e+000
          1.492537313427e+001 0.000000000000e+000 0.000000000000e+000
          1.641791044770e+001 0.000000000000e+000 0.000000000000e+000
          1.791044776112e+001 0.000000000000e+000 0.000000000000e+000
          1.940298507455e+001 0.000000000000e+000 0.000000000000e+000
          2.089552238798e+001 0.000000000000e+000 0.000000000000e+000
          2.238805970141e+001 0.000000000000e+000 0.000000000000e+000
          2.388059701484e+001 0.000000000000e+000 0.000000000000e+000
          2.537313432826e+001 0.000000000000e+000 0.000000000000e+000
          2.686567164169e+001 0.000000000000e+000 0.000000000000e+000
          2.835820895511e+001 0.000000000000e+000 0.000000000000e+000
          2.985074626854e+001 0.000000000000e+000 0.000000000000e+000
          3.134328358196e+001 0.000000000000e+000 0.000000000000e+000
          3.283582089539e+001 0.000000000000e+000 0.000000000000e+000
          3.432835820881e+001 0.000000000000e+000 0.000000000000e+000
          3.582089552224e+001 0.000000000000e+000 0.000000000000e+000
          3.731343283566e+001 0.000000000000e+000 0.000000000000e+000
          3.880597014909e+001 0.000000000000e+000 0.000000000000e+000
          4.029850746251e+001 0.000000000000e+000 0.000000000000e+000
          4.179104477594e+001 0.000000000000e+000 0.000000000000e+000
          4.328358208936e+001 0.000000000000e+000 0.000000000000e+000
          4.477611940279e+001 0.000000000000e+000 0.000000000000e+000
          4.626865671621e+001 0.000000000000e+000 0.000000000000e+000
          4.776119402964e+001 0.000000000000e+000 0.000000000000e+000
          4.925373134306e+001 0.000000000000e+000 0.000000000000e+000
          5.074626865649e+001 0.000000000000e+000 0.000000000000e+000
          5.223880596991e+001 0.000000000000e+000 0.000000000000e+000
          5.373134328334e+001 0.000000000000e+000 0.000000000000e+000
          5.522388059676e+001 0.000000000000e+000 0.000000000000e+000
          5.671641791019e+001 0.000000000000e+000 0.000000000000e+000
          5.820895522361e+001 0.000000000000e+000 0.000000000000e+000
          5.970149253704e+001 0.000000000000e+000 0.000000000000e+000
          6.119402985046e+001 0.000000000000e+000 0.000000000000e+000
          6.268656716389e+001 0.000000000000e+000 0.000000000000e+000
          6.417910447732e+001 0.000000000000e+000 0.000000000000e+000
          6.567164179075e+001 0.000000000000e+000 0.000000000000e+000
          6.716417910418e+001 0.000000000000e+000 0.000000000000e+000
          6.865671641761e+001 0.000000000000e+000 0.000000000000e+000
          7.014925373104e+001 0.000000000000e+000 0.000000000000e+000
          7.164179104447e+001 0.000000000000e+000 0.000000000000e+000
          7.313432835790e+001 0.000000000000e+000 0.000000000000e+000
          7.462686567133e+001 0.000000000000e+000 0.000000000000e+000
          7.611940298476e+001 0.000000000000e+000 0.000000000000e+000
          7.761194029819e+001 0.000000000000e+000 0.000000000000e+000
          7.910447761162e+001 0.000000000000e+000 0.000000000000e+000
          8.059701492505e+001 0.000000000000e+000 0.000000000000e+000
          8.208955223848e+001 0.000000000000e+000 0.000000000000e+000
          8.358208955191e+001 0.000000000000e+000 0.000000000000e+000
          8.507462686534e+001 0.000000000000e+000 0.000000000000e+000
          8.656716417877e+001 0.000000000000e+000 0.000000000000e+000
          8.805970149220e+001 0.000000000000e+000 0.000000000000e+000
          8.955223880563e+001 0.000000000000e+000 0.000000000000e+000
          9.104477611907e+001 0.000000000000e+000 0.000000000000e+000
          9.253731343250e+001 0.000000000000e+000 0.000000000000e+000
          9.402985074593e+001 0.000000000000e+000 0.000000000000e+000
          9.552238805936e+001 0.000000000000e+000 0.000000000000e+000
          9.701492537279e+001 0.000000000000e+000 0.000000000000e+000
          9.850746268622e+001 0.000000000000e+000 0.000000000000e+000
          9.999999999965e+001 0.000000000000e+000 0.000000000000e+000
          1.014925373131e+002 0.000000000000e+000 0.000000000000e+000
          1.029850746265e+002 0.000000000000e+000 0.000000000000e+000
          1.044776119399e+002 0.000000000000e+000 0.000000000000e+000
          1.059701492534e+002 0.000000000000e+000 0.000000000000e+000
          1.074626865668e+002 0.000000000000e+000 0.000000000000e+000
          1.089552238802e+002 0.000000000000e+000 0.000000000000e+000
          1.104477611937e+002 0.000000000000e+000 0.000000000000e+000
          1.119402985071e+002 0.000000000000e+000 0.000000000000e+000
          1.134328358205e+002 0.000000000000e+000 0.000000000000e+000
          1.149253731340e+002 0.000000000000e+000 0.000000000000e+000
          1.164179104474e+002 0.000000000000e+000 0.000000000000e+000
          1.179104477608e+002 0.000000000000e+000 0.000000000000e+000
          1.194029850742e+002 0.000000000000e+000 0.000000000000e+000
          1.208955223877e+002 0.000000000000e+000 0.000000000000e+000
          1.223880597011e+002 0.000000000000e+000 0.000000000000e+000
          1.238805970145e+002 0.000000000000e+000 0.000000000000e+000
          1.253731343280e+002 0.000000000000e+000 0.000000000000e+000
          1.268656716414e+002 0.000000000000e+000 0.000000000000e+000
          1.283582089548e+002 0.000000000000e+000 0.000000000000e+000
          1.298507462683e+002 0.000000000000e+000 0.000000000000e+000
          1.313432835817e+002 0.000000000000e+000 0.000000000000e+000
          1.328358208952e+002 0.000000000000e+000 0.000000000000e+000
          1.343283582086e+002 0.000000000000e+000 0.000000000000e+000
          1.358208955220e+002 0.000000000000e+000 0.000000000000e+000
          1.373134328355e+002 0.000000000000e+000 0.000000000000e+000
          1.388059701489e+002 0.000000000000e+000 0.000000000000e+000
          1.402985074624e+002 0.000000000000e+000 0.000000000000e+000
          1.417910447758e+002 0.000000000000e+000 0.000000000000e+000
          1.432835820892e+002 0.000000000000e+000 0.000000000000e+000
          1.447761194027e+002 0.000000000000e+000 0.000000000000e+000
          1.462686567161e+002 0.000000000000e+000 0.000000000000e+000
          1.477611940296e+002 0.000000000000e+000 0.000000000000e+000
          1.492537313430e+002 0.000000000000e+000 0.000000000000e+000
          1.507462686564e+002 0.000000000000e+000 0.000000000000e+000
          1.522388059699e+002 0.000000000000e+000 0.000000000000e+000
          1.537313432833e+002 0.000000000000e+000 0.000000000000e+000
          1.552238805968e+002 0.000000000000e+000 0.000000000000e+000
          1.567164179102e+002 0.000000000000e+000 0.000000000000e+000
          1.582089552237e+002 0.000000000000e+000 0.000000000000e+000
          1.597014925371e+002 0.000000000000e+000 0.000000000000e+000
          1.611940298505e+002 0.000000000000e+000 0.000000000000e+000
          1.626865671640e+002 0.000000000000e+000 0.000000000000e+000
          1.641791044774e+002 0.000000000000e+000 0.000000000000e+000
          1.656716417909e+002 0.000000000000e+000 0.000000000000e+000
          1.671641791043e+002 0.000000000000e+000 0.000000000000e+000
          1.686567164177e+002 0.000000000000e+000 0.000000000000e+000
          1.701492537312e+002 0.000000000000e+000 0.000000000000e+000
          1.716417910446e+002 0.000000000000e+000 0.000000000000e+000
          1.731343283581e+002 0.000000000000e+000 0.000000000000e+000
          1.746268656715e+002 0.000000000000e+000 0.000000000000e+000
          1.761194029849e+002 0.000000000000e+000 0.000000000000e+000
          1.776119402984e+002 0.000000000000e+000 0.000000000000e+000
          1.791044776118e+002 0.000000000000e+000 0.000000000000e+000
          1.805970149253e+002 0.000000000000e+000 0.000000000000e+000
          1.820895522387e+002 0.000000000000e+000 0.000000000000e+000
          1.835820895521e+002 0.000000000000e+000 0.000000000000e+000
          1.850746268656e+002 0.000000000000e+000 0.000000000000e+000
          1.865671641790e+002 0.000000000000e+000 0.000000000000e+000
          1.880597014925e+002 0.000000000000e+000 0.000000000000e+000
          1.895522388059e+002 0.000000000000e+000 0.000000000000e+000
          1.910447761194e+002 0.000000000000e+000 0.000000000000e+000
          1.925373134328e+002 0.000000000000e+000 0.000000000000e+000
          1.940298507462e+002 0.000000000000e+000 0.000000000000e+000
          1.955223880597e+002 0.000000000000e+000 0.000000000000e+000
          1.970149253731e+002 0.000000000000e+000 0.000000000000e+000
          1.985074626866e+002 0.000000000000e+000 0.000000000000e+000
          2.000000000000e+002 1.428571428570e+000 0.000000000000e+000
          2.000000000000e+002 2.857142857140e+000 0.000000000000e+000
[...]
      <PointData Scalars="Capillary_Pressure">
        <DataArray type="Float64" Name="Capillary_Pressure" format="ascii">
          3.858790076698e+005 0.000000000000e+000 0.000000000000e+000 3.858812768774e+005 3.861058850657e+005 3.833765582874e+005 3.825141715182e+005 3.805838706014e+005 3.803109217255e+005 3.784172231492e+005 3.763899516382e+005 3.763139587875e+005 3.741466578045e+005 3.739789655426e+005 3.720958589720e+005 3.697262357549e+005 3.697727040736e+005 3.677548905023e+005 3.673454093048e+005 3.652412433152e+005 3.618474762083e+005 3.616408110169e+005 3.610746543762e+005 3.580698295212e+005 3.577331280259e+005 3.555471047164e+005 3.549207387196e+005 3.517797575073e+005 3.512773359123e+005 3.492115497622e+005 3.485717570179e+005 3.453711713899e+005 3.448450858065e+005 3.428663032686e+005 3.421278359931e+005 3.385277754419e+005 3.384396077467e+005 3.358296035190e+005 3.334393994047e+005 3.331504937458e+005 3.323512827974e+005 3.291947165043e+005 3.265155336838e+005 3.261463279892e+005 3.224777082350e+005 3.220102551937e+005 3.191821321093e+005 3.186868738635e+005 3.162455998711e+005 3.153360206412e+005 3.112468542857e+005 3.110556676854e+005 3.071965788749e+005 3.066351489865e+005 3.026730853492e+005 3.012997200151e+005 2.991144603615e+005 2.986446686002e+005 2.975139753461e+005 2.937201247273e+005 2.904972549462e+005 2.901204971310e+005 2.860657307806e+005 2.853676223704e+005 2.824371449135e+005 2.790557540595e+005 2.760434235048e+005 2.754191281817e+005 2.708694734510e+005 2.692617504123e+005 2.666499955246e+005 2.634938525365e+005 2.626281781106e+005 2.597491280400e+005 2.560106185786e+005 2.526816878446e+005 2.521287927167e+005 2.485807023884e+005 2.453345055108e+005 2.440165009702e+005 2.383065968929e+005 2.349306462499e+005 2.317818579697e+005 2.281760324697e+005 2.246375088470e+005 2.209059685411e+005 2.201729695557e+005 2.166578551455e+005 2.127648030283e+005 2.092227995948e+005 2.020013946988e+005 1.981297821043e+005 1.941920777217e+005 1.898342481237e+005 1.871879211946e+005 1.796147377031e+005 1.750892084059e+005 1.725992610402e+005 1.644456072802e+005 1.582148596692e+005 1.551364219617e+005 1.450037110065e+005 1.384644455430e+005 1.313797127505e+005 1.226084514187e+005 1.133909460570e+005 1.033201699662e+005 9.111616366887e+004 7.765577847173e+004 6.084808315150e+004 3.897628691874e+004 7.612382172311e+003 0.000000000000e+000 0.000000000000e+000 0.000000000000e+000 0.000000000000e+000 0.000000000000e+000 0.000000000000e+000 0.000000000000e+000 0.000000000000e+000 0.000000000000e+000 0.000000000000e+000 0.000000000000e+000 0.000000000000e+000 0.000000000000e+000 0.000000000000e+000 0.000000000000e+000 0.000000000000e+000 0.000000000000e+000 0.000000000000e+000 0.000000000000e+000 0.000000000000e+000 0.000000000000e+000 0.000000000000e+000 0.000000000000e+000 0.000000000000e+000 0.000000000000e+000 0.000000000000e+000 0.000000000000e+000 0.000000000000e+000 0.000000000000e+000 0.000000000000e+000 0.000000000000e+000 0.000000000000e+000 0.000000000000e+000 0.000000000000e+000 0.000000000000e+000 0.000000000000e+000 0.000000000000e+000 0.000000000000e+000 0.000000000000e+000 0.000000000000e+000 0.000000000000e+000 0.000000000000e+000 0.000000000000e+000 0.000000000000e+000 0.000000000000e+000 0.000000000000e+000 0.000000000000e+000 0.000000000000e+000 0.000000000000e+000 0.000000000000e+000 0.000000000000e+000 0.000000000000e+000 0.000000000000e+000 0.000000000000e+000 0.000000000000e+000 0.000000000000e+000 0.000000000000e+000 0.000000000000e+000 0.000000000000e+000 0.000000000000e+000 0.000000000000e+000 0.000000000000e+000 0.000000000000e+000 7.608419631871e+003 3.896506682545e+004 6.081946500583e+004 7.764653407562e+004 9.110157390215e+004 1.033233309341e+005 1.134118738607e+005 1.225967781596e+005 1.313774505308e+005 1.384580375008e+005 1.449969657602e+005 1.551324821429e+005 1.582071080724e+005 1.644291880373e+005 1.725920553237e+005 1.750861913188e+005 1.796169824106e+005 1.871807040299e+005 1.898290151550e+005 1.941818753658e+005 1.981090427732e+005 2.019790402197e+005 2.092182279758e+005 2.127683301620e+005 2.166588746559e+005 2.201733015515e+005 2.209014211534e+005 2.246475442616e+005 2.281846929345e+005 2.317730409658e+005 2.349328884584e+005 2.382900748908e+005 2.440040717825e+005 2.453182323867e+005 2.485836115974e+005 2.521146804910e+005 2.526681106594e+005 2.559972070942e+005 2.597385724906e+005 2.626422116456e+005 2.659916371665e+005 2.666480860317e+005 2.692442664928e+005 2.708480411874e+005 2.754319716971e+005 2.786134703389e+005 2.790418885688e+005 2.823731046483e+005 2.853680704469e+005 2.860674416579e+005 2.901235343535e+005 2.905038875399e+005 2.937492368288e+005 2.975096750455e+005 2.986507167497e+005 2.991277959193e+005 3.013255321941e+005 3.056687679456e+005 3.066566877081e+005 3.071977116235e+005 3.110585720063e+005 3.112874362824e+005 3.153169412959e+005 3.162173097185e+005 3.186717482164e+005 3.191571939759e+005 3.219941019338e+005 3.252530061516e+005 3.261447231978e+005 3.265053897643e+005 3.291864832118e+005 3.323557636900e+005 3.331523519082e+005 3.334319245655e+005 3.358321352817e+005 3.384402686395e+005 3.385262509519e+005 3.421241122048e+005 3.428626509667e+005 3.448423832851e+005 3.453741304649e+005 3.485697112536e+005 3.492106028105e+005 3.512763557473e+005 3.517739647458e+005 3.549217400081e+005 3.555414831987e+005 3.577336985396e+005 3.580736159222e+005 3.610739947641e+005 3.616448733386e+005 3.618562566463e+005 3.652317408194e+005 3.673428790978e+005 3.677565083086e+005 3.697803011178e+005 3.697214575687e+005 3.720862390428e+005 3.721439499717e+005 3.741641812812e+005 3.763093073967e+005 3.763850971598e+005 3.784232198789e+005 3.803175438119e+005 3.805975333874e+005 3.824732461709e+005 3.833782208800e+005 3.861053481586e+005 3.858802358126e+005 3.858777534629e+005 3.858815599923e+005 3.858801399325e+005 3.858784824043e+005 3.858789581956e+005 3.858789630090e+005 3.858779396537e+005 3.858785721893e+005 3.858795643933e+005 3.858801115321e+005 3.858769625563e+005 3.858781026018e+005 0.000000000000e+000 3.783991783255e+005 0.000000000000e+000 0.000000000000e+000 5.197730889103e+004 1.353061308743e+005 1.796440046042e+005 3.614337442015e+005 2.088461677627e+005 3.492453200083e+005 3.387079176588e+005 3.264095384947e+005 3.062869697834e+005 2.907331070944e+005 2.748929083912e+005 2.556301157450e+005 2.352699509333e+005 3.699698175597e+005 3.162345448887e+005 2.208886378345e+005 2.239061691604e+005 2.453144323346e+005 2.659920524507e+005 2.823600696520e+005 2.986506700742e+005 0.000000000000e+000 0.000000000000e+000 1.021131234907e+005 2.986474053967e+005 2.825405873747e+005 2.658440810044e+005 2.449545390297e+005 1.580228985262e+005 1.941835203975e+005 3.555561722187e+005 3.449196496603e+005 3.330797810693e+005 1.941201263257e+005 1.581906429261e+005 1.033026111203e+005 0.000000000000e+000 0.000000000000e+000 3.331809337674e+005 3.448470458161e+005 3.555333584773e+005 0.000000000000e+000 0.000000000000e+000 3.192770954663e+005 3.116079175984e+005 3.739779133874e+005 3.652313437135e+005 0.000000000000e+000 3.805919860851e+005 0.000000000000e+000 3.805993998958e+005 3.737349273091e+005 3.652788903352e+005 3.221414914435e+005 3.108169508925e+005 0.000000000000e+000 2.352589471743e+005 0.000000000000e+000 2.556230606315e+005 2.748840621355e+005 2.907191297723e+005 3.059108215503e+005 2.088955731459e+005 5.032544660649e+004 1.344150000082e+005 1.796007470275e+005 3.492847293477e+005 3.387771566534e+005 2.098295221579e+005 1.797574106658e+005 1.352281539183e+005 5.088731970688e+004 2.907328442850e+005 2.748798673710e+005 2.556450659640e+005 0.000000000000e+000 2.352497836564e+005 0.000000000000e+000 3.264777631241e+005 3.387334541731e+005 3.492781610659e+005 3.614357852063e+005 0.000000000000e+000 0.000000000000e+000 3.763833017151e+005 3.610622164684e+005 3.024907116513e+005 3.286779565285e+005 0.000000000000e+000 3.825274048607e+005 3.699555719823e+005 3.783633201519e+005 3.699715994212e+005 3.162877815858e+005 3.217473063277e+005 3.113050267683e+005 3.741570092960e+005 3.651976425077e+005 3.162068450969e+005 0.000000000000e+000 9.307961733419e+004 0.000000000000e+000 1.552498204219e+005 0.000000000000e+000 1.902593843232e+005 2.442213348389e+005 2.792111422052e+005 2.946644640092e+005 2.627413100377e+005 3.549383100507e+005 3.333773233652e+005 3.448844327472e+005 2.245174082827e+005 3.162379441328e+005 0.000000000000e+000 3.833656228869e+005 0.000000000000e+000 3.833603789636e+005 2.396900711094e+005 2.598843367777e+005 2.792574355940e+005 2.941750141015e+005 2.020189446853e+005 2.280162107988e+005 2.167220886598e+005 1.691095132495e+005 3.293853071686e+005 1.169545564597e+005 3.426498527686e+005 0.000000000000e+000 3.520658226650e+005 0.000000000000e+000 0.000000000000e+000 0.000000000000e+000 0.000000000000e+000 0.000000000000e+000 1.177643915679e+005 8.695835825532e+004 1.692507338624e+005 1.518304054584e+005 3.520031287642e+005 1.906921969072e+005 2.020375227529e+005 3.426025400072e+005 3.455651043412e+005 2.941638407805e+005 2.792339726748e+005 2.598001763578e+005 2.856960885021e+005 2.669974854357e+005 2.436227134450e+005 2.482388083058e+005 3.334809172471e+005 2.167059137110e+005 2.277578972644e+005 0.000000000000e+000 3.579027737337e+005 0.000000000000e+000 3.454913372280e+005 8.897272774781e+004 3.335638401435e+005 1.512347815723e+005 3.015246308859e+005 2.858261192292e+005 2.671336115180e+005 2.514070039390e+005 1.908434347821e+005 3.699507898348e+005 0.000000000000e+000 0.000000000000e+000 3.106582540810e+005 3.247005817967e+005 3.650465039511e+005 2.168196996543e+005 2.669772718177e+005 2.481904709519e+005 2.856533384657e+005 3.015049539214e+005 3.578733688996e+005 3.427027213492e+005 0.000000000000e+000 3.294185690048e+005 0.000000000000e+000 1.184038045320e+005 2.018987912891e+005 1.653416230204e+005 3.577400071808e+005 0.000000000000e+000 0.000000000000e+000 3.148222492476e+005 3.741484956878e+005 0.000000000000e+000 2.165161470931e+005 2.053873238332e+005 1.727075567459e+005 3.289982412481e+005 1.233713339395e+005 3.420832939202e+005 2.861332517178e+005 2.693040234701e+005 2.521916560926e+005 0.000000000000e+000 3.580690692459e+005 0.000000000000e+000 3.675332360627e+005 3.017450247520e+005 0.000000000000e+000 0.000000000000e+000 0.000000000000e+000 2.990043803051e+005 3.324434800006e+005 3.071244502011e+005 3.253987916746e+005 3.803246699466e+005 3.618137522245e+005 3.762786150645e+005 3.720155758614e+005 3.618075997883e+005 2.383257392881e+005 2.597548238910e+005 2.786418490394e+005 2.937621818207e+005 5.728811348320e+003 3.517832248471e+005 0.000000000000e+000 2.282389532205e+005 1.872016083289e+005 9.065542708655e+003 1.448912695624e+005 0.000000000000e+000 7.759398826452e+004 2.388777256506e+005 2.597691005764e+005 2.785761151801e+005 2.937060486898e+005 3.517188837563e+005 3.358052168550e+005 3.485838319041e+005 3.485834650252e+005 7.678246289570e+004 3.353857077093e+005 1.449068835521e+005 1.871184935258e+005 2.282161888463e+005 0.000000000000e+000 0.000000000000e+000 3.833629005174e+005 3.833689703625e+005 0.000000000000e+000 3.798846564194e+005 0.000000000000e+000 0.000000000000e+000 3.784643292848e+005 0.000000000000e+000 3.762961697685e+005 3.798965832271e+005 3.255846563122e+005 3.065347728057e+005 3.612522472207e+005 3.762035468446e+005 3.261961701379e+005 3.676433045163e+005 3.677847981486e+005 3.065459515824e+005 3.719136197008e+005 3.216951545476e+005 3.149578871871e+005 3.720747934458e+005 3.424057730944e+005 2.015877538308e+005 1.685304439008e+005 1.205649839301e+005 0.000000000000e+000 0.000000000000e+000 2.169554222782e+005 3.017726048925e+005 2.855149272073e+005 2.697727238687e+005 2.518472626530e+005 3.190831972569e+005 3.677215723449e+005 3.118606645468e+005 3.186605781069e+005 0.000000000000e+000 0.000000000000e+000 3.576221496331e+005 3.318136160374e+005 3.784948261044e+005 3.805496029269e+005 0.000000000000e+000 3.719706025388e+005 2.353890284422e+005 2.586265079916e+005 2.754845674214e+005 2.905424152893e+005 2.092388876671e+005 2.096398549959e+005 2.317095894432e+005 1.750280942103e+005 1.327243946602e+005 3.265352179411e+005 3.742500040460e+004 3.388869035929e+005 0.000000000000e+000 3.512971430702e+005 0.000000000000e+000 0.000000000000e+000 3.705479144798e+004 1.326597703385e+005 1.761591299969e+005 3.513130357033e+005 3.388967923239e+005 2.905151245113e+005 2.754956057720e+005 2.586363418782e+005 0.000000000000e+000 3.610552629797e+005 3.025915091465e+005 0.000000000000e+000 0.000000000000e+000 0.000000000000e+000 3.582731423477e+005 3.619102109748e+005 3.762819958134e+005 3.152511480117e+005 0.000000000000e+000 0.000000000000e+000 1.083713037082e+005 1.616455039532e+005 1.983667689198e+005 3.556204385361e+005 3.427943221033e+005 3.327133875299e+005 2.453640682329e+005 2.825524888314e+005 2.990742653118e+005 2.666107407844e+005 2.205516560243e+005 0.000000000000e+000 0.000000000000e+000 0.000000000000e+000 0.000000000000e+000 1.357342035654e+005 1.794897313149e+005 3.388032804947e+005 2.905655403849e+005 2.745761264709e+005 2.554241656581e+005 3.827479668489e+005 3.187262380828e+005 2.095741683581e+005 2.092621607014e+005 3.059286814249e+005 0.000000000000e+000 3.859470580618e+005 3.290152000043e+005 3.014970765987e+005 1.942409466286e+005 1.582698406604e+005 1.033578528149e+005 0.000000000000e+000 0.000000000000e+000 3.331248565301e+005 3.448293788097e+005 3.555445491683e+005 2.659938755616e+005 2.453209536584e+005 2.986500889606e+005 2.824352705876e+005 0.000000000000e+000 0.000000000000e+000 2.824377994177e+005 2.659770685214e+005 1.033077588665e+005 2.453239050465e+005 1.582206547692e+005 1.941626162280e+005 3.448538520136e+005 2.208559311264e+005 2.209140033863e+005 3.675095443935e+005 3.225937767778e+005 3.697290488102e+005 2.994693792284e+005 3.160423914203e+005 0.000000000000e+000 0.000000000000e+000 3.110719015149e+005 3.075813859767e+005 3.156723414436e+005 2.050238196738e+005 2.358654819277e+005 2.318210081687e+005 2.123660852444e+005 2.519510275379e+005 2.704288260290e+005 2.897081185928e+005 1.824180254587e+005 3.490053563354e+005 3.381051687019e+005 0.000000000000e+000 6.867975282079e+004 1.415968187510e+005 0.000000000000e+000 3.490030379245e+005 6.874008631941e+004 3.381025017993e+005 2.897098797997e+005 2.704090700283e+005 2.523336662201e+005 1.416025129772e+005 1.824223137506e+005 3.828434569048e+005 3.761583554828e+005 0.000000000000e+000 3.828360062383e+005 2.352188991467e+005 2.353137032241e+005 3.492892541770e+005 3.492930156091e+005 4.985442202949e+004 5.033133294770e+004 0.000000000000e+000 3.718750394327e+005 3.783960196023e+005 3.610380203792e+005 3.699817740764e+005 0.000000000000e+000 3.859508691138e+005 0.000000000000e+000 3.859486137789e+005 3.739970542940e+005 0.000000000000e+000 0.000000000000e+000 1.797894123796e+005 1.352537282110e+005 3.387278324537e+005 2.555147274758e+005 2.907718147463e+005 2.749331091046e+005 0.000000000000e+000 3.653364146616e+005 3.652947636486e+005 3.762978467329e+005 3.069209085236e+005 3.257431675516e+005 3.763172177378e+005 3.616532738018e+005 3.554420433812e+005 3.218423546137e+005 3.647873803796e+005 0.000000000000e+000 0.000000000000e+000 3.247739299651e+005 3.073302947394e+005 0.000000000000e+000 3.266452344458e+005 3.071906303275e+005 3.111456151679e+005 0.000000000000e+000 3.578987480553e+005 0.000000000000e+000 2.861309485513e+005 2.693206742113e+005 2.521860330584e+005 2.133073272852e+005 3.426292224808e+005 1.170231359486e+005 3.317314107434e+005 1.691677507473e+005 2.054976661880e+005 0.000000000000e+000 3.677725045561e+005 3.119488375858e+005 3.185228966401e+005 3.264924537455e+005 3.721094873477e+005 0.000000000000e+000 3.859526854364e+005 0.000000000000e+000 3.860921997134e+005 3.785326841580e+005 3.614145323202e+005 3.163312495266e+005 3.218255708585e+005 0.000000000000e+000 3.333778721281e+005 2.982581982394e+005 3.653052440278e+005 3.068490116998e+005 3.698360914760e+005 1.907404838243e+005 1.507112608937e+005 8.787983208441e+004 3.336171287582e+005 3.455642380270e+005 7.584819428906e+004 0.000000000000e+000 1.447930056671e+005 1.122377340824e+004 1.869984656165e+005 3.486191740052e+005 3.354254028886e+005 3.512217549048e+005 2.936640831329e+005 2.596559072491e+005 2.759446627275e+005 2.390717588018e+005 0.000000000000e+000 0.000000000000e+000 3.520262682893e+005 2.278542148284e+005 2.942481022190e+005 2.793412775841e+005 2.599531070627e+005 2.436492973881e+005 2.283085668206e+005 2.208893117041e+005 2.453137693967e+005 2.824349678050e+005 2.659998461743e+005 2.986535445948e+005 0.000000000000e+000 0.000000000000e+000 1.032664711792e+005 1.941800944922e+005 1.581824807346e+005 3.555375660784e+005 3.448538489806e+005 3.331543987998e+005 3.258011776356e+005 3.617941112360e+005 0.000000000000e+000 3.785265469501e+005 2.284491945326e+005 2.389366122154e+005 2.595553192924e+005 2.783644113383e+005 2.935505975351e+005 1.658666220818e+004 0.000000000000e+000 3.511230515382e+005 7.416301499542e+004 1.446580559705e+005 1.868558707061e+005 3.488125283533e+005 3.354668468767e+005 3.159061258554e+005 0.000000000000e+000 3.187916011691e+005 0.000000000000e+000 2.240430658961e+005 2.207851046636e+005 2.451083993823e+005 2.656837282776e+005 2.822051580063e+005 2.983293760559e+005 0.000000000000e+000 0.000000000000e+000 1.046630988533e+005 1.620180293436e+005 1.937311030812e+005 3.447420427099e+005 1.942981565820e+005 2.823072565079e+005 2.636412905802e+005 2.451631043790e+005 1.583176015178e+005 1.034017102552e+005 3.330906050306e+005 0.000000000000e+000 3.448073418168e+005 0.000000000000e+000 3.555414359654e+005 3.699706754256e+005 0.000000000000e+000 3.551473232280e+005 0.000000000000e+000 2.792637452971e+005 2.442885723582e+005 2.626312101316e+005 2.947049922024e+005 3.447746803746e+005 9.418480647832e+004 3.330840227020e+005 1.540382523294e+005 1.904935740489e+005 2.243058925833e+005 3.784348107591e+005 0.000000000000e+000 3.859522611188e+005 0.000000000000e+000 0.000000000000e+000 0.000000000000e+000 3.189497187963e+005 3.121091697710e+005 3.654536913204e+005 3.554784717338e+005 0.000000000000e+000 3.780426399041e+005 0.000000000000e+000 0.000000000000e+000 3.615674191003e+005 2.055684447788e+005 1.728456531503e+005 3.291051446189e+005 1.268828401965e+005 3.420230466927e+005 2.520977248736e+005 2.693102496740e+005 2.860585580670e+005 2.133241708978e+005 0.000000000000e+000 3.581563689764e+005 0.000000000000e+000 3.265079411100e+005 3.059974814115e+005 3.192057088714e+005 3.741211408564e+005 3.762780602236e+005 0.000000000000e+000 3.825563108528e+005 0.000000000000e+000 3.825561752474e+005 2.982055931227e+005 3.333603036704e+005 3.015094846901e+005 3.719999256873e+005 0.000000000000e+000 3.827575872516e+005 3.222022749237e+005 3.115332825879e+005 3.193084752271e+005 3.654760151659e+005 3.740185585716e+005 3.698185711524e+005 3.295223910221e+005 3.740243367235e+005 3.678175204103e+005 3.190945468644e+005 3.763921454143e+005 3.742074269518e+005 3.157922966642e+005 3.251675184929e+005 3.113549160546e+005 3.219187491995e+005 0.000000000000e+000 3.803233156238e+005 3.580183745328e+005 2.204868336914e+005 2.124354845959e+005 0.000000000000e+000 0.000000000000e+000 0.000000000000e+000 0.000000000000e+000 1.234666954812e+005 1.727895711854e+005 3.420394978746e+005 1.977941923431e+005 2.049599198286e+005 2.990806136619e+005 3.016321564869e+005 2.853007839453e+005 2.896424498223e+005 2.703350645698e+005 2.661922067748e+005 2.485764258219e+005 2.526445469373e+005 3.805838387638e+005 0.000000000000e+000 0.000000000000e+000 0.000000000000e+000 0.000000000000e+000 3.828693264819e+005 0.000000000000e+000 2.395136753618e+005 2.597384748326e+005 2.791423502267e+005 2.934877650530e+005 2.280232484817e+005 2.162667430638e+005 2.021559116096e+005 1.693284807069e+005 3.292870641405e+005 1.178239613817e+005 3.425671577152e+005 0.000000000000e+000 3.519947774469e+005 0.000000000000e+000 0.000000000000e+000 0.000000000000e+000 0.000000000000e+000 1.178455712675e+005 1.69327