<?xml version="1.0"?>
<VTKFile type="UnstructuredGrid" version="0.1" byte_order="LittleEndian">
  <UnstructuredGrid>
    <Piece NumberOfPoints="2604" NumberOfCells="4910">
      <Points>
        <DataArray type="Float64" NumberOfComponents="3" format="ascii">
          0.000000000000e+000 0.000000000000e+000 0.000000000000e+000
          2.000000000000e+002 0.000000000000e+000 0.000000000000e+000
          2.000000000000e+002 2.000000000000e+001 0.000000000000e+000
          0.000000000000e+000 2.000000000000e+001 0.000000000000e+000
          1.492537313427e+000 0.000000000000e+000 0.000000000000e+000
          2.985074626854e+000 0.000000000000e+000 0.000000000000e+000
          4.477611940281e+000 0.000000000000e+000 0.000000000000e+000
          5.970149253708e+000 0.000000000000e+000 0.000000000000e+000
          7.462686567135e+000 0.000000000000e+000 0.000000000000e+000
          8.955223880561e+000 0.000000000000e+000 0.000000000000e+000
          1.044776119399e+001 0.000000000000e+000 0.000000000000e+000
          1.194029850741e+001 0.000000000000e+000 0.000000000000e+000
          1.343283582084e+001 0.000000000000e+000 0.000000000000e+000
          1.492537313427e+001 0.000000000000e+000 0.000000000000e+000
          1.641791044770e+001 0.000000000000e+000 0.000000000000e+000
          1.791044776112e+001 0.000000000000e+000 0.000000000000e+000
          1.940298507455e+001 0.000000000000e+000 0.000000000000e+000
          2.089552238798e+001 0.000000000000e+000 0.000000000000e+000
          2.238805970141e+001 0.000000000000e+000 0.000000000000e+000
          2.388059701484e+001 0.000000000000e+000 0.000000000000e+000
          2.537313432826e+001 0.000000000000e+000 0.000000000000e+000
          2.686567164169e+001 0.000000000000e+000 0.000000000000e+000
          2.835820895511e+001 0.000000000000e+000 0.000000000000e+000
          2.985074626854e+001 0.000000000000e+000 0.000000000000e+000
          3.134328358196e+001 0.000000000000e+000 0.000000000000e+000
          3.283582089539e+001 0.000000000000e+000 0.000000000000e+000
          3.432835820881e+001 0.000000000000e+000 0.000000000000e+000
          3.582089552224e+001 0.000000000000e+000 0.000000000000e+000
          3.731343283566e+001 0.000000000000e+000 0.000000000000e+000
          3.880597014909e+001 0.000000000000e+000 0.000000000000e+000
          4.029850746251e+001 0.000000000000e+000 0.000000000000e+000
          4.179104477594e+001 0.000000000000e+000 0.000000000000e+000
          4.328358208936e+001 0.000000000000e+000 0.000000000000e+000
          4.477611940279e+001 0.000000000000e+000 0.000000000000e+000
          4.626865671621e+001 0.000000000000e+000 0.000000000000e+000
          4.776119402964e+001 0.000000000000e+000 0.000000000000e+000
          4.925373134306e+001 0.000000000000e+000 0.000000000000e+000
          5.074626865649e+001 0.000000000000e+000 0.000000000000e+000
          5.223880596991e+001 0.000000000000e+000 0.000000000000e+000
          5.373134328334e+001 0.000000000000e+000 0.000000000000e+000
          5.522388059676e+001 0.000000000000e+000 0.000000000000e+000
          5.671641791019e+001 0.000000000000e+000 0.000000000000e+000
          5.820895522361e+001 0.000000000000e+000 0.000000000000e+000
          5.970149253704e+001 0.000000000000e+000 0.000000000000e+000
          6.119402985046e+001 0.000000000000e+000 0.000000000000e+000
          6.268656716389e+001 0.000000000000e+000 0.000000000000e+000
          6.417910447732e+001 0.000000000000e+000 0.000000000000e+000
          6.567164179075e+001 0.000000000000e+000 0.000000000000e+000
          6.716417910418e+001 0.000000000000e+000 0.000000000000e+000
          6.865671641761e+001 0.000000000000e+000 0.000000000000e+000
          7.014925373104e+001 0.000000000000e+000 0.000000000000e+000
          7.164179104447e+001 0.000000000000e+000 0.000000000000e+000
          7.313432835790e+001 0.000000000000e+000 0.000000000000e+000
          7.462686567133e+001 0.000000000000e+000 0.000000000000e+000
          7.611940298476e+001 0.000000000000e+000 0.000000000000e+000
          7.761194029819e+001 0.000000000000e+000 0.000000000000e+000
          7.910447761162e+001 0.000000000000e+000 0.000000000000e+000
          8.059701492505e+001 0.000000000000e+000 0.000000000000e+000
          8.208955223848e+001 0.000000000000e+000 0.000000000000e+000
          8.358208955191e+001 0.000000000000e+000 0.000000000000e+000
          8.507462686534e+001 0.000000000000e+000 0.000000000000e+000
          8.656716417877e+001 0.000000000000e+000 0.000000000000e+000
          8.805970149220e+001 0.000000000000e+000 0.000000000000e+000
          8.955223880563e+001 0.000000000000e+000 0.000000000000e+000
          9.104477611907e+001 0.000000000000e+000 0.000000000000e+000
          9.253731343250e+001 0.000000000000e+000 0.000000000000e+000
          9.402985074593e+001 0.000000000000e+000 0.000000000000e+000
          9.552238805936e+001 0.000000000000e+000 0.000000000000e+000
          9.701492537279e+001 0.000000000000e+000 0.000000000000e+000
          9.850746268622e+001 0.000000000000e+000 0.000000000000e+000
          9.999999999965e+001 0.000000000000e+000 0.000000000000e+000
          1.014925373131e+002 0.000000000000e+000 0.000000000000e+000
          1.029850746265e+002 0.000000000000e+000 0.000000000000e+000
          1.044776119399e+002 0.000000000000e+000 0.000000000000e+000
          1.059701492534e+002 0.000000000000e+000 0.000000000000e+000
          1.074626865668e+002 0.000000000000e+000 0.000000000000e+000
          1.089552238802e+002 0.000000000000e+000 0.000000000000e+000
          1.104477611937e+002 0.000000000000e+000 0.000000000000e+000
          1.119402985071e+002 0.000000000000e+000 0.000000000000e+000
          1.134328358205e+002 0.000000000000e+000 0.000000000000e+000
          1.149253731340e+002 0.000000000000e+000 0.000000000000e+000
          1.164179104474e+002 0.000000000000e+000 0.000000000000e+000
          1.179104477608e+002 0.000000000000e+000 0.000000000000e+000
          1.194029850742e+002 0.000000000000e+000 0.000000000000e+000
          1.208955223877e+002 0.000000000000e+000 0.000000000000e+000
          1.223880597011e+002 0.000000000000e+000 0.000000000000e+000
          1.238805970145e+002 0.000000000000e+000 0.000000000000e+000
          1.253731343280e+002 0.000000000000e+000 0.000000000000e+000
          1.268656716414e+002 0.000000000000e+000 0.000000000000e+000
          1.283582089548e+002 0.000000000000e+000 0.000000000000e+000
          1.298507462683e+002 0.000000000000e+000 0.000000000000e+000
          1.313432835817e+002 0.000000000000e+000 0.000000000000e+000
          1.328358208952e+002 0.000000000000e+000 0.000000000000e+000
          1.343283582086e+002 0.000000000000e+000 0.000000000000e+000
          1.358208955220e+002 0.000000000000e+000 0.000000000000e+000
          1.373134328355e+002 0.000000000000e+000 0.000000000000e+000
          1.388059701489e+002 0.000000000000e+000 0.000000000000e+000
          1.402985074624e+002 0.000000000000e+000 0.000000000000e+000
          1.417910447758e+002 0.000000000000e+000 0.000000000000e+000
          1.432835820892e+002 0.000000000000e+000 0.000000000000e+000
          1.447761194027e+002 0.000000000000e+000 0.000000000000e+000
          1.462686567161e+002 0.000000000000e+000 0.000000000000e+000
          1.477611940296e+002 0.000000000000e+000 0.000000000000e+000
          1.492537313430e+002 0.000000000000e+000 0.000000000000e+000
          1.507462686564e+002 0.000000000000e+000 0.000000000000e+000
          1.522388059699e+002 0.000000000000e+000 0.000000000000e+000
          1.537313432833e+002 0.000000000000e+000 0.000000000000e+000
          1.552238805968e+002 0.000000000000e+000 0.000000000000e+000
          1.567164179102e+002 0.000000000000e+000 0.000000000000e+000
          1.582089552237e+002 0.000000000000e+000 0.000000000000e+000
          1.597014925371e+002 0.000000000000e+000 0.000000000000e+000
          1.611940298505e+002 0.000000000000e+000 0.000000000000e+000
          1.626865671640e+002 0.000000000000e+000 0.000000000000e+000
          1.641791044774e+002 0.000000000000e+000 0.000000000000e+000
          1.656716417909e+002 0.000000000000e+000 0.000000000000e+000
          1.671641791043e+002 0.000000000000e+000 0.000000000000e+000
          1.686567164177e+002 0.000000000000e+000 0.000000000000e+000
          1.701492537312e+002 0.000000000000e+000 0.000000000000e+000
          1.716417910446e+002 0.000000000000e+000 0.000000000000e+000
          1.731343283581e+002 0.000000000000e+000 0.000000000000e+000
          1.746268656715e+002 0.000000000000e+000 0.000000000000e+000
          1.761194029849e+002 0.000000000000e+000 0.000000000000e+000
          1.776119402984e+002 0.000000000000e+000 0.000000000000e+000
          1.791044776118e+002 0.000000000000e+000 0.000000000000e+000
          1.805970149253e+002 0.000000000000e+000 0.000000000000e+000
          1.820895522387e+002 0.000000000000e+000 0.000000000000e+000
          1.835820895521e+002 0.000000000000e+000 0.000000000000e+000
          1.850746268656e+002 0.000000000000e+000 0.000000000000e+000
          1.865671641790e+002 0.000000000000e+000 0.000000000000e+000
          1.880597014925e+002 0.000000000000e+000 0.000000000000e+000
          1.895522388059e+002 0.000000000000e+000 0.000000000000e+000
          1.910447761194e+002 0.000000000000e+000 0.000000000000e+000
          1.925373134328e+002 0.000000000000e+000 0.000000000000e+000
          1.940298507462e+002 0.000000000000e+000 0.000000000000e+000
          1.955223880597e+002 0.000000000000e+000 0.000000000000e+000
          1.970149253731e+002 0.000000000000e+000 0.000000000000e+000
          1.985074626866e+002 0.000000000000e+000 0.000000000000e+000
          2.000000000000e+002 1.428571428570e+000 0.000000000000e+000
          2.000000000000e+002 2.857142857140e+000 0.000000000000e+000
[...]
      <PointData Scalars="Capillary_Pressure">
        <DataArray type="Float64" Name="Capillary_Pressure" format="ascii">
          3.856951835836e+005 0.000000000000e+000 0.000000000000e+000 3.856974710840e+005 3.859228029627e+005 3.831906250186e+005 3.823286096096e+005 3.803973656093e+005 3.801244851141e+005 3.782296717318e+005 3.762019943637e+005 3.761260154778e+005 3.739573067422e+005 3.737892817062e+005 3.719116425112e+005 3.695405259302e+005 3.695833585713e+005 3.675656177600e+005 3.671565841178e+005 3.650521937363e+005 3.616572564363e+005 3.614516801019e+005 3.608859221400e+005 3.578804075340e+005 3.575445825235e+005 3.553585250599e+005 3.547332445107e+005 3.515915478456e+005 3.510905631832e+005 3.490245603928e+005 3.483864030367e+005 3.451861030884e+005 3.446604684276e+005 3.426819029552e+005 3.419448445580e+005 3.383442075690e+005 3.382590707130e+005 3.356492883276e+005 3.332579436756e+005 3.329712732896e+005 3.321751449104e+005 3.290157515746e+005 3.263412589680e+005 3.259706249134e+005 3.223067925034e+005 3.218383855636e+005 3.190084425294e+005 3.185175591154e+005 3.160772405299e+005 3.151691365304e+005 3.110802931053e+005 3.108902405248e+005 3.070328584863e+005 3.064735758697e+005 3.025101277718e+005 3.011432095463e+005 2.989567888102e+005 2.984902661397e+005 2.973609974648e+005 2.935680422041e+005 2.903454415685e+005 2.899720489612e+005 2.859210298886e+005 2.852197784597e+005 2.822938994633e+005 2.789148741658e+005 2.759025496555e+005 2.752816812742e+005 2.707310379356e+005 2.691270984678e+005 2.665142542491e+005 2.633606141008e+005 2.624998272153e+005 2.596214881787e+005 2.558852105583e+005 2.525552678120e+005 2.520064419054e+005 2.484603468889e+005 2.452155427831e+005 2.439005161451e+005 2.381936495178e+005 2.348130889946e+005 2.316706732337e+005 2.280644011729e+005 2.245282320011e+005 2.207977420894e+005 2.200675602552e+005 2.165531978179e+005 2.126644392197e+005 2.091231880174e+005 2.019008193641e+005 1.980269147387e+005 1.940986619207e+005 1.897380391232e+005 1.870942938523e+005 1.795185373004e+005 1.749942906499e+005 1.725067902947e+005 1.643509977373e+005 1.581198331308e+005 1.550430670902e+005 1.449062789750e+005 1.383653027379e+005 1.312782049180e+005 1.225025194270e+005 1.132786417006e+005 1.032000849088e+005 9.098342451013e+004 7.750453499403e+004 6.066549910999e+004 3.873888917430e+004 7.294473912277e+003 0.000000000000e+000 0.000000000000e+000 0.000000000000e+000 0.000000000000e+000 0.000000000000e+000 0.000000000000e+000 0.000000000000e+000 0.000000000000e+000 0.000000000000e+000 0.000000000000e+000 0.000000000000e+000 0.000000000000e+000 0.000000000000e+000 0.000000000000e+000 0.000000000000e+000 0.000000000000e+000 0.000000000000e+000 0.000000000000e+000 0.000000000000e+000 0.000000000000e+000 0.000000000000e+000 0.000000000000e+000 0.000000000000e+000 0.000000000000e+000 0.000000000000e+000 0.000000000000e+000 0.000000000000e+000 0.000000000000e+000 0.000000000000e+000 0.000000000000e+000 0.000000000000e+000 0.000000000000e+000 0.000000000000e+000 0.000000000000e+000 0.000000000000e+000 0.000000000000e+000 0.000000000000e+000 0.000000000000e+000 0.000000000000e+000 0.000000000000e+000 0.000000000000e+000 0.000000000000e+000 0.000000000000e+000 0.000000000000e+000 0.000000000000e+000 0.000000000000e+000 0.000000000000e+000 0.000000000000e+000 0.000000000000e+000 0.000000000000e+000 0.000000000000e+000 0.000000000000e+000 0.000000000000e+000 0.000000000000e+000 0.000000000000e+000 0.000000000000e+000 0.000000000000e+000 0.000000000000e+000 0.000000000000e+000 0.000000000000e+000 0.000000000000e+000 0.000000000000e+000 0.000000000000e+000 7.289677558798e+003 3.872711345657e+004 6.063655611322e+004 7.749549408710e+004 9.096848013736e+004 1.032032866829e+005 1.132998702441e+005 1.224907776717e+005 1.312758723811e+005 1.383588085893e+005 1.448991999437e+005 1.550395292736e+005 1.581116781511e+005 1.643343463858e+005 1.724998324966e+005 1.749913607924e+005 1.795227956302e+005 1.870850956688e+005 1.897336319959e+005 1.940890648817e+005 1.980080906643e+005 2.018813193542e+005 2.091162551526e+005 2.126695298755e+005 2.165568960180e+005 2.200665718429e+005 2.207952739035e+005 2.245372184396e+005 2.280744346549e+005 2.316611915206e+005 2.348172833382e+005 2.381738017117e+005 2.438908632297e+005 2.451988079892e+005 2.484646898734e+005 2.519918968480e+005 2.525429134344e+005 2.558716689042e+005 2.596101770247e+005 2.625141895194e+005 2.658593404213e+005 2.665135910179e+005 2.691098819723e+005 2.707083263852e+005 2.752946460425e+005 2.784746676215e+005 2.789009557494e+005 2.822289999980e+005 2.852225202898e+005 2.859238582999e+005 2.899728037329e+005 2.903525868082e+005 2.935974714069e+005 2.973574613261e+005 2.984953307343e+005 2.989713595152e+005 3.011663464142e+005 3.055103327173e+005 3.064947008036e+005 3.070336738666e+005 3.108955561728e+005 3.111216206999e+005 3.151503969732e+005 3.160477743299e+005 3.185041086199e+005 3.189873022340e+005 3.218204935201e+005 3.250819353308e+005 3.259699192859e+005 3.263295502202e+005 3.290095243362e+005 3.321784302491e+005 3.329736117297e+005 3.332503399271e+005 3.356512056731e+005 3.382598335062e+005 3.383425171403e+005 3.419416423281e+005 3.426781412941e+005 3.446579014847e+005 3.451892167303e+005 3.483841681663e+005 3.490235990684e+005 3.510896770124e+005 3.515857113397e+005 3.547343849506e+005 3.553529249620e+005 3.575448914660e+005 3.578843345616e+005 3.608856269510e+005 3.614551843701e+005 3.616658050786e+005 3.650424091764e+005 3.671536469744e+005 3.675668380410e+005 3.695913877047e+005 3.695333651894e+005 3.718952715423e+005 3.719535327156e+005 3.739747342309e+005 3.761222379577e+005 3.761959555968e+005 3.782361667368e+005 3.801308317809e+005 3.804109753980e+005 3.822878227413e+005 3.831928050057e+005 3.859223444605e+005 3.856967982058e+005 3.856943569456e+005 3.856979431783e+005 3.856966916300e+005 3.856944915906e+005 3.856953962581e+005 3.856956664896e+005 3.856940957582e+005 3.856947691814e+005 3.856963803180e+005 3.856962680337e+005 3.856936328832e+005 3.856944827404e+005 0.000000000000e+000 3.782119094089e+005 0.000000000000e+000 0.000000000000e+000 5.177458487203e+004 1.352064583001e+005 1.795502984600e+005 3.612447707223e+005 2.087432465230e+005 3.490587997833e+005 3.385259264589e+005 3.262359596783e+005 3.061273871519e+005 2.905852663207e+005 2.747565807796e+005 2.555041203449e+005 2.351556877070e+005 3.697801243535e+005 3.160661755876e+005 2.207808754936e+005 2.238019346641e+005 2.451946418449e+005 2.658640637513e+005 2.822136157564e+005 2.984968890236e+005 0.000000000000e+000 0.000000000000e+000 1.019920364793e+005 2.984931005240e+005 2.824012796197e+005 2.657120972867e+005 2.448330698559e+005 1.579268170387e+005 1.940853503248e+005 3.553676494768e+005 3.447335388835e+005 3.329018147154e+005 1.940248827728e+005 1.580948634722e+005 1.031825245187e+005 0.000000000000e+000 0.000000000000e+000 3.329994059611e+005 3.446622978562e+005 3.553448389388e+005 0.000000000000e+000 0.000000000000e+000 3.191061407312e+005 3.114428552305e+005 3.737870816098e+005 3.650428948566e+005 0.000000000000e+000 3.804054366548e+005 0.000000000000e+000 3.804133284584e+005 3.735461127783e+005 3.650893476070e+005 3.219689417025e+005 3.106534904336e+005 0.000000000000e+000 2.351459271161e+005 0.000000000000e+000 2.554988873019e+005 2.747473374900e+005 2.905699866668e+005 3.057518781701e+005 2.087944476851e+005 5.011847562695e+004 1.343145279608e+005 1.795075401817e+005 3.490969255219e+005 3.385943357649e+005 2.097286173545e+005 1.796637457485e+005 1.351281089076e+005 5.068197458820e+004 2.905850275441e+005 2.747417778234e+005 2.555215345676e+005 0.000000000000e+000 2.351342206313e+005 0.000000000000e+000 3.263033960971e+005 3.385496370166e+005 3.490904444249e+005 3.612469195997e+005 0.000000000000e+000 0.000000000000e+000 3.761945212429e+005 3.608742903565e+005 3.023304936772e+005 3.285025085700e+005 0.000000000000e+000 3.823423702664e+005 3.697658515399e+005 3.781760450670e+005 3.697821250161e+005 3.161157177160e+005 3.215815471660e+005 3.111412642320e+005 3.739676903405e+005 3.650107561722e+005 3.160381004686e+005 0.000000000000e+000 9.294915851485e+004 0.000000000000e+000 1.551559469956e+005 0.000000000000e+000 1.901629130163e+005 2.441007653220e+005 2.790804513877e+005 2.945136782038e+005 2.626199838181e+005 3.547504948927e+005 3.331960394551e+005 3.446981298602e+005 2.244097086985e+005 3.160714264808e+005 0.000000000000e+000 3.831799879164e+005 0.000000000000e+000 3.831753523218e+005 2.395730126869e+005 2.597464278326e+005 2.791123590460e+005 2.940229857598e+005 2.019175839599e+005 2.279064854042e+005 2.166215402344e+005 1.690172931869e+005 3.292081441765e+005 1.168454846487e+005 3.424662297160e+005 0.000000000000e+000 3.518776412088e+005 0.000000000000e+000 0.000000000000e+000 0.000000000000e+000 0.000000000000e+000 0.000000000000e+000 1.176553147624e+005 8.682022373121e+004 1.691581106717e+005 1.517356639218e+005 3.518150835157e+005 1.905933041956e+005 2.019360973083e+005 3.424192490040e+005 3.453767324703e+005 2.940081866629e+005 2.790910306639e+005 2.596699440184e+005 2.855484049521e+005 2.668620273643e+005 2.435077657879e+005 2.481171923846e+005 3.333004146575e+005 2.166031506700e+005 2.276499985791e+005 0.000000000000e+000 3.577142841181e+005 0.000000000000e+000 3.453038363600e+005 8.883754014315e+004 3.333836435669e+005 1.511388334617e+005 3.013661916314e+005 2.856807967233e+005 2.669998161445e+005 2.512867683269e+005 1.907482137097e+005 3.697611805830e+005 0.000000000000e+000 0.000000000000e+000 3.104953119589e+005 3.245284955156e+005 3.648581678524e+005 2.167196545402e+005 2.668470900546e+005 2.480622543870e+005 2.855026113403e+005 3.013468443237e+005 3.576850301430e+005 3.425175982918e+005 0.000000000000e+000 3.292403432060e+005 0.000000000000e+000 1.182966159283e+005 2.018002981364e+005 1.652420414242e+005 3.575512815193e+005 0.000000000000e+000 0.000000000000e+000 3.146573085552e+005 3.739595857950e+005 0.000000000000e+000 2.164147579819e+005 2.052920474548e+005 1.726158307520e+005 3.288297327439e+005 1.232658378482e+005 3.418997019624e+005 2.859878638617e+005 2.691660748727e+005 2.520712977490e+005 0.000000000000e+000 3.578798513509e+005 0.000000000000e+000 3.673434370812e+005 3.015880379645e+005 0.000000000000e+000 0.000000000000e+000 0.000000000000e+000 2.988484152943e+005 3.322645466446e+005 3.069610662000e+005 3.252243773541e+005 3.801387764222e+005 3.616217988694e+005 3.760904294980e+005 3.718287658352e+005 3.616169020017e+005 2.382058678714e+005 2.596253098437e+005 2.785024799695e+005 2.936100510061e+005 5.406709329255e+003 3.515951097447e+005 0.000000000000e+000 2.281281314001e+005 1.871093244215e+005 8.749243142909e+003 1.447933964149e+005 0.000000000000e+000 7.744288833993e+004 2.387602890677e+005 2.596429437797e+005 2.784411383982e+005 2.935559234807e+005 3.515295747434e+005 3.356231092015e+005 3.483988065693e+005 3.483976982052e+005 7.662933370456e+004 3.352030449671e+005 1.448091268927e+005 1.870219641324e+005 2.281040623977e+005 0.000000000000e+000 0.000000000000e+000 3.831774825531e+005 3.831839019998e+005 0.000000000000e+000 3.796981076177e+005 0.000000000000e+000 0.000000000000e+000 3.782766193160e+005 0.000000000000e+000 3.761074385058e+005 3.797095912817e+005 3.254121205695e+005 3.063709052424e+005 3.610615607099e+005 3.760150115518e+005 3.260224416283e+005 3.674537375265e+005 3.675960761048e+005 3.063849961956e+005 3.717243148603e+005 3.215259862573e+005 3.147925295290e+005 3.718848142256e+005 3.422231542785e+005 2.014872002296e+005 1.684359287043e+005 1.204579041431e+005 0.000000000000e+000 0.000000000000e+000 2.168520620743e+005 3.016146026474e+005 2.853657735939e+005 2.696367546923e+005 2.517251175399e+005 3.189142498434e+005 3.675318851260e+005 3.116940960812e+005 3.184894781239e+005 0.000000000000e+000 0.000000000000e+000 3.574330819530e+005 3.316398184755e+005 3.783069639882e+005 3.803630777378e+005 0.000000000000e+000 3.717811420448e+005 2.352701028174e+005 2.584975803367e+005 2.753456798640e+005 2.903878628901e+005 2.091418020394e+005 2.095383389352e+005 2.315933625845e+005 1.749326710599e+005 1.326247389034e+005 3.263595148723e+005 3.718315536111e+004 3.387036951279e+005 0.000000000000e+000 3.511108942971e+005 0.000000000000e+000 0.000000000000e+000 3.681166718105e+004 1.325600425655e+005 1.760657966548e+005 3.511268805489e+005 3.387129407718e+005 2.903612868422e+005 2.753569917647e+005 2.585086936490e+005 0.000000000000e+000 3.608670395528e+005 3.024309773015e+005 0.000000000000e+000 0.000000000000e+000 0.000000000000e+000 3.580826748367e+005 3.617210768443e+005 3.760934442430e+005 3.150855008112e+005 0.000000000000e+000 0.000000000000e+000 1.082548083582e+005 1.615507796023e+005 1.982715999157e+005 3.554312046226e+005 3.426094409538e+005 3.325321313506e+005 2.452411574336e+005 2.824122126921e+005 2.989188357058e+005 2.664782368943e+005 2.204484426636e+005 0.000000000000e+000 0.000000000000e+000 0.000000000000e+000 0.000000000000e+000 1.356358691808e+005 1.793971288489e+005 3.386216553515e+005 2.904181963997e+005 2.744404847058e+005 2.552999798795e+005 3.825632105374e+005 3.185620663902e+005 2.094713742623e+005 2.091581462333e+005 3.057691314025e+005 0.000000000000e+000 3.857648474442e+005 3.288377355677e+005 3.013390585550e+005 1.941373929440e+005 1.581741757633e+005 1.032375273827e+005 0.000000000000e+000 0.000000000000e+000 3.329471838013e+005 3.446438952551e+005 3.553561968251e+005 2.658600809551e+005 2.452028595718e+005 2.984952166530e+005 2.822910680036e+005 0.000000000000e+000 0.000000000000e+000 2.822891852051e+005 2.658437906315e+005 1.031875640035e+005 2.452057092083e+005 1.581253129159e+005 1.940600341121e+005 3.446677084711e+005 2.207494725257e+005 2.208076269528e+005 3.673209919901e+005 3.224229319296e+005 3.695407835400e+005 2.993111633894e+005 3.158744635979e+005 0.000000000000e+000 0.000000000000e+000 3.109046079744e+005 3.074180012888e+005 3.155049915661e+005 2.049215089320e+005 2.357511564317e+005 2.317095252232e+005 2.122602100872e+005 2.518243199812e+005 2.702917984878e+005 2.895599746775e+005 1.823212325861e+005 3.488191177410e+005 3.379251189988e+005 0.000000000000e+000 6.851299645793e+004 1.414987617992e+005 0.000000000000e+000 3.488167117022e+005 6.857342676388e+004 3.379219313290e+005 2.895599900044e+005 2.702712563182e+005 2.522080471442e+005 1.415044501783e+005 1.823266522768e+005 3.826581706394e+005 3.759689743752e+005 0.000000000000e+000 3.826508468929e+005 2.351073826719e+005 2.351994168384e+005 3.491013283727e+005 3.491061081303e+005 4.964645849231e+004 5.012494707994e+004 0.000000000000e+000 3.716836738698e+005 3.782088714366e+005 3.608503507905e+005 3.697930516892e+005 0.000000000000e+000 3.857680110395e+005 0.000000000000e+000 3.857659647343e+005 3.738073366751e+005 0.000000000000e+000 0.000000000000e+000 1.796966494900e+005 1.351534975600e+005 3.385454591018e+005 2.553905377984e+005 2.906231972551e+005 2.747967379303e+005 0.000000000000e+000 3.651477966861e+005 3.651056199632e+005 3.761083455351e+005 3.067588076576e+005 3.255706113834e+005 3.761287054320e+005 3.614634891066e+005 3.552537977516e+005 3.216723307216e+005 3.645976171221e+005 0.000000000000e+000 0.000000000000e+000 3.246005096720e+005 3.071678023803e+005 0.000000000000e+000 3.264713953940e+005 3.070270649365e+005 3.109818728240e+005 0.000000000000e+000 3.577103650855e+005 0.000000000000e+000 2.859836902938e+005 2.691800786037e+005 2.520657627092e+005 2.132076229496e+005 3.424454621243e+005 1.169136115528e+005 3.315716636341e+005 1.690755721841e+005 2.053978437378e+005 0.000000000000e+000 3.675846193871e+005 3.117820852639e+005 3.183526232033e+005 3.263179982357e+005 3.719177324512e+005 0.000000000000e+000 3.857691956438e+005 0.000000000000e+000 3.859093495576e+005 3.783451111625e+005 3.612258790670e+005 3.161622490302e+005 3.216565906385e+005 0.000000000000e+000 3.331972309970e+005 2.981039132562e+005 3.651165350816e+005 3.066876044317e+005 3.696543244234e+005 1.906483003716e+005 1.506152352101e+005 8.774304571671e+004 3.334345287077e+005 3.453772035806e+005 7.569390557046e+004 0.000000000000e+000 1.446951553792e+005 1.091284000192e+004 1.869037458124e+005 3.484343153540e+005 3.352402002323e+005 3.510326496949e+005 2.935136030510e+005 2.595326751533e+005 2.758050250983e+005 2.389537503543e+005 0.000000000000e+000 0.000000000000e+000 3.518377105505e+005 2.277463761911e+005 2.940968343837e+005 2.791964603746e+005 2.598147120310e+005 2.435338735105e+005 2.281956289835e+005 2.207826949719e+005 2.451954104407e+005 2.822926402950e+005 2.658749130154e+005 2.984987420554e+005 0.000000000000e+000 0.000000000000e+000 1.031463789138e+005 1.940821198014e+005 1.580889210341e+005 3.553489082050e+005 3.446670457542e+005 3.329746312465e+005 3.256268841669e+005 3.616052346963e+005 0.000000000000e+000 3.783388262789e+005 2.283384825762e+005 2.388205011724e+005 2.594318354106e+005 2.782244590573e+005 2.934008114662e+005 1.628588291534e+004 0.000000000000e+000 3.509344973585e+005 7.400586215631e+004 1.445612023900e+005 1.867559937592e+005 3.486268297261e+005 3.352849782113e+005 3.157305196397e+005 0.000000000000e+000 3.186249660674e+005 0.000000000000e+000 2.239367429181e+005 2.206796803420e+005 2.449922595645e+005 2.655436833721e+005 2.820552653058e+005 2.981784326896e+005 0.000000000000e+000 0.000000000000e+000 1.045441137670e+005 1.619252395483e+005 1.936353342589e+005 3.445570929075e+005 1.942054026119e+005 2.821649845394e+005 2.635029961777e+005 2.450442537469e+005 1.582228768582e+005 1.032815549553e+005 3.329121633456e+005 0.000000000000e+000 3.446218247845e+005 0.000000000000e+000 3.553531771971e+005 3.697803033098e+005 0.000000000000e+000 3.549593745192e+005 0.000000000000e+000 2.791291433414e+005 2.441655804934e+005 2.625017434386e+005 2.945495369086e+005 3.445904130412e+005 9.405497583792e+004 3.329005265281e+005 1.539429814031e+005 1.903917269658e+005 2.241961887323e+005 3.782474242544e+005 0.000000000000e+000 3.857694188766e+005 0.000000000000e+000 0.000000000000e+000 0.000000000000e+000 3.187837273745e+005 3.119410393551e+005 3.652638352308e+005 3.552903400789e+005 0.000000000000e+000 3.778550222969e+005 0.000000000000e+000 0.000000000000e+000 3.613777188784e+005 2.054689867001e+005 1.727515792222e+005 3.289284181550e+005 1.267806062064e+005 3.418407286882e+005 2.519752042043e+005 2.691733663619e+005 2.859137340516e+005 2.132219564382e+005 0.000000000000e+000 3.579669700962e+005 0.000000000000e+000 3.263330492607e+005 3.058376701186e+005 3.190330639594e+005 3.739309111485e+005 3.760902782290e+005 0.000000000000e+000 3.823709806822e+005 0.000000000000e+000 3.823713842053e+005 2.980537548283e+005 3.331803377419e+005 3.013495665938e+005 3.718125147271e+005 0.000000000000e+000 3.825719226148e+005 3.220293909412e+005 3.113692688780e+005 3.191358732941e+005 3.652866179590e+005 3.738288719751e+005 3.696268219717e+005 3.293441282431e+005 3.738348703849e+005 3.676283302346e+005 3.189304587341e+005 3.762040647702e+005 3.740174783605e+005 3.156233259559e+005 3.249979458321e+005 3.111909888119e+005 3.217464486352e+005 0.000000000000e+000 3.801367193599e+005 3.578298214942e+005 2.203834076141e+005 2.123297414889e+005 0.000000000000e+000 0.000000000000e+000 0.000000000000e+000 0.000000000000e+000 1.233611665397e+005 1.726963928919e+005 3.418570530525e+005 1.976944204753e+005 2.048591504652e+005 2.989246196075e+005 3.014733249811e+005 2.851484954179e+005 2.894956659649e+005 2.701969519805e+005 2.660543924571e+005 2.484579370134e+005 2.525214867006e+005 3.803976338230e+005 0.000000000000e+000 0.000000000000e+000 0.000000000000e+000 0.000000000000e+000 3.826841049439e+005 0.000000000000e+000 2.393950032975e+005 2.596079376551e+005 2.790006033946e+005 2.933327143871e+005 2.279144858378e+005 2.161637169309e+005 2.020587603842e+005 1.692355959388e+005 3.291101310765e+005 1.177149858379e+005 3.423834274443e+005 0.000000000000e+000 3.518060088069e+005 0.000000000000e+000 0.000000000000e+000 0.000000000000e+000 0.000000000000e+000 1.177366052578e+005 1.69234