<?xml version="1.0"?>
<VTKFile type="UnstructuredGrid" version="0.1" byte_order="LittleEndian">
  <UnstructuredGrid>
    <Piece NumberOfPoints="909" NumberOfCells="800">
      <Points>
        <DataArray type="Float64" NumberOfComponents="3" format="ascii">
          0.000000000000e+000 0.000000000000e+000 0.000000000000e+000
          2.000000000000e+000 0.000000000000e+000 0.000000000000e+000
          2.000000000000e+000 2.500000000000e+000 0.000000000000e+000
          0.000000000000e+000 2.500000000000e+000 0.000000000000e+000
          2.000000000000e+000 5.000000000000e+000 0.000000000000e+000
          0.000000000000e+000 5.000000000000e+000 0.000000000000e+000
          2.000000000000e+000 7.500000000000e+000 0.000000000000e+000
          0.000000000000e+000 7.500000000000e+000 0.000000000000e+000
          2.000000000000e+000 1.000000000000e+001 0.000000000000e+000
          0.000000000000e+000 1.000000000000e+001 0.000000000000e+000
          2.000000000000e+000 1.250000000000e+001 0.000000000000e+000
          0.000000000000e+000 1.250000000000e+001 0.000000000000e+000
          2.000000000000e+000 1.500000000000e+001 0.000000000000e+000
          0.000000000000e+000 1.500000000000e+001 0.000000000000e+000
          2.000000000000e+000 1.750000000000e+001 0.000000000000e+000
          0.000000000000e+000 1.750000000000e+001 0.000000000000e+000
          2.000000000000e+000 2.000000000000e+001 0.000000000000e+000
          0.000000000000e+000 2.000000000000e+001 0.000000000000e+000
          4.000000000000e+000 0.000000000000e+000 0.000000000000e+000
          4.000000000000e+000 2.500000000000e+000 0.000000000000e+000
          4.000000000000e+000 5.000000000000e+000 0.000000000000e+000
          4.000000000000e+000 7.500000000000e+000 0.000000000000e+000
          4.000000000000e+000 1.000000000000e+001 0.000000000000e+000
          4.000000000000e+000 1.250000000000e+001 0.000000000000e+000
          4.000000000000e+000 1.500000000000e+001 0.000000000000e+000
          4.000000000000e+000 1.750000000000e+001 0.000000000000e+000
          4.000000000000e+000 2.000000000000e+001 0.000000000000e+000
          6.000000000000e+000 0.000000000000e+000 0.000000000000e+000
          6.000000000000e+000 2.500000000000e+000 0.000000000000e+000
          6.000000000000e+000 5.000000000000e+000 0.000000000000e+000
          6.000000000000e+000 7.500000000000e+000 0.000000000000e+000
          6.000000000000e+000 1.000000000000e+001 0.000000000000e+000
          6.000000000000e+000 1.250000000000e+001 0.000000000000e+000
          6.000000000000e+000 1.500000000000e+001 0.000000000000e+000
          6.000000000000e+000 1.750000000000e+001 0.000000000000e+000
          6.000000000000e+000 2.000000000000e+001 0.000000000000e+000
          8.000000000000e+000 0.000000000000e+000 0.000000000000e+000
          8.000000000000e+000 2.500000000000e+000 0.000000000000e+000
          8.000000000000e+000 5.000000000000e+000 0.000000000000e+000
          8.000000000000e+000 7.500000000000e+000 0.000000000000e+000
          8.000000000000e+000 1.000000000000e+001 0.000000000000e+000
          8.000000000000e+000 1.250000000000e+001 0.000000000000e+000
          8.000000000000e+000 1.500000000000e+001 0.000000000000e+000
          8.000000000000e+000 1.750000000000e+001 0.000000000000e+000
          8.000000000000e+000 2.000000000000e+001 0.000000000000e+000
          1.000000000000e+001 0.000000000000e+000 0.000000000000e+000
          1.000000000000e+001 2.500000000000e+000 0.000000000000e+000
          1.000000000000e+001 5.000000000000e+000 0.000000000000e+000
          1.000000000000e+001 7.500000000000e+000 0.000000000000e+000
          1.000000000000e+001 1.000000000000e+001 0.000000000000e+000
          1.000000000000e+001 1.250000000000e+001 0.000000000000e+000
          1.000000000000e+001 1.500000000000e+001 0.000000000000e+000
          1.000000000000e+001 1.750000000000e+001 0.000000000000e+000
          1.000000000000e+001 2.000000000000e+001 0.000000000000e+000
          1.200000000000e+001 0.000000000000e+000 0.000000000000e+000
          1.200000000000e+001 2.500000000000e+000 0.000000000000e+000
          1.200000000000e+001 5.000000000000e+000 0.000000000000e+000
          1.200000000000e+001 7.500000000000e+000 0.000000000000e+000
          1.200000000000e+001 1.000000000000e+001 0.000000000000e+000
          1.200000000000e+001 1.250000000000e+001 0.000000000000e+000
          1.200000000000e+001 1.500000000000e+001 0.000000000000e+000
          1.200000000000e+001 1.750000000000e+001 0.000000000000e+000
          1.200000000000e+001 2.000000000000e+001 0.000000000000e+000
          1.400000000000e+001 0.000000000000e+000 0.000000000000e+000
          1.400000000000e+001 2.500000000000e+000 0.000000000000e+000
          1.400000000000e+001 5.000000000000e+000 0.000000000000e+000
          1.400000000000e+001 7.500000000000e+000 0.000000000000e+000
          1.400000000000e+001 1.000000000000e+001 0.000000000000e+000
          1.400000000000e+001 1.250000000000e+001 0.000000000000e+000
          1.400000000000e+001 1.500000000000e+001 0.000000000000e+000
          1.400000000000e+001 1.750000000000e+001 0.000000000000e+000
          1.400000000000e+001 2.000000000000e+001 0.000000000000e+000
          1.600000000000e+001 0.000000000000e+000 0.000000000000e+000
          1.600000000000e+001 2.500000000000e+000 0.000000000000e+000
          1.600000000000e+001 5.000000000000e+000 0.000000000000e+000
          1.600000000000e+001 7.500000000000e+000 0.000000000000e+000
          1.600000000000e+001 1.000000000000e+001 0.000000000000e+000
          1.600000000000e+001 1.250000000000e+001 0.000000000000e+000
          1.600000000000e+001 1.500000000000e+001 0.000000000000e+000
          1.600000000000e+001 1.750000000000e+001 0.000000000000e+000
          1.600000000000e+001 2.000000000000e+001 0.000000000000e+000
          1.800000000000e+001 0.000000000000e+000 0.000000000000e+000
          1.800000000000e+001 2.500000000000e+000 0.000000000000e+000
          1.800000000000e+001 5.000000000000e+000 0.000000000000e+000
          1.800000000000e+001 7.500000000000e+000 0.000000000000e+000
          1.800000000000e+001 1.000000000000e+001 0.000000000000e+000
          1.800000000000e+001 1.250000000000e+001 0.000000000000e+000
          1.800000000000e+001 1.500000000000e+001 0.000000000000e+000
          1.800000000000e+001 1.750000000000e+001 0.000000000000e+000
          1.800000000000e+001 2.000000000000e+001 0.000000000000e+000
          2.000000000000e+001 0.000000000000e+000 0.000000000000e+000
          2.000000000000e+001 2.500000000000e+000 0.000000000000e+000
          2.000000000000e+001 5.000000000000e+000 0.000000000000e+000
          2.000000000000e+001 7.500000000000e+000 0.000000000000e+000
          2.000000000000e+001 1.000000000000e+001 0.000000000000e+000
          2.000000000000e+001 1.250000000000e+001 0.000000000000e+000
          2.000000000000e+001 1.500000000000e+001 0.000000000000e+000
          2.000000000000e+001 1.750000000000e+001 0.000000000000e+000
          2.000000000000e+001 2.000000000000e+001 0.000000000000e+000
          2.200000000000e+001 0.000000000000e+000 0.000000000000e+000
          2.200000000000e+001 2.500000000000e+000 0.000000000000e+000
          2.200000000000e+001 5.000000000000e+000 0.000000000000e+000
          2.200000000000e+001 7.500000000000e+000 0.000000000000e+000
          2.200000000000e+001 1.000000000000e+001 0.000000000000e+000
          2.200000000000e+001 1.250000000000e+001 0.000000000000e+000
          2.200000000000e+001 1.500000000000e+001 0.000000000000e+000
          2.200000000000e+001 1.750000000000e+001 0.000000000000e+000
          2.200000000000e+001 2.000000000000e+001 0.000000000000e+000
          2.400000000000e+001 0.000000000000e+000 0.000000000000e+000
          2.400000000000e+001 2.500000000000e+000 0.000000000000e+000
          2.400000000000e+001 5.000000000000e+000 0.000000000000e+000
          2.400000000000e+001 7.500000000000e+000 0.000000000000e+000
          2.400000000000e+001 1.000000000000e+001 0.000000000000e+000
          2.400000000000e+001 1.250000000000e+001 0.000000000000e+000
          2.400000000000e+001 1.500000000000e+001 0.000000000000e+000
          2.400000000000e+001 1.750000000000e+001 0.000000000000e+000
          2.400000000000e+001 2.000000000000e+001 0.000000000000e+000
          2.600000000000e+001 0.000000000000e+000 0.000000000000e+000
          2.600000000000e+001 2.500000000000e+000 0.000000000000e+000
          2.600000000000e+001 5.000000000000e+000 0.000000000000e+000
          2.600000000000e+001 7.500000000000e+000 0.000000000000e+000
          2.600000000000e+001 1.000000000000e+001 0.000000000000e+000
          2.600000000000e+001 1.250000000000e+001 0.000000000000e+000
          2.600000000000e+001 1.500000000000e+001 0.000000000000e+000
          2.600000000000e+001 1.750000000000e+001 0.000000000000e+000
          2.600000000000e+001 2.000000000000e+001 0.000000000000e+000
          2.800000000000e+001 0.000000000000e+000 0.000000000000e+000
          2.800000000000e+001 2.500000000000e+000 0.000000000000e+000
          2.800000000000e+001 5.000000000000e+000 0.000000000000e+000
          2.800000000000e+001 7.500000000000e+000 0.000000000000e+000
          2.800000000000e+001 1.000000000000e+001 0.000000000000e+000
          2.800000000000e+001 1.250000000000e+001 0.000000000000e+000
          2.800000000000e+001 1.500000000000e+001 0.000000000000e+000
          2.800000000000e+001 1.750000000000e+001 0.000000000000e+000
          2.800000000000e+001 2.000000000000e+001 0.000000000000e+000
          3.000000000000e+001 0.000000000000e+000 0.000000000000e+000
          3.000000000000e+001 2.500000000000e+000 0.000000000000e+000
          3.000000000000e+001 5.000000000000e+000 0.000000000000e+000
          3.000000000000e+001 7.500000000000e+000 0.000000000000e+000
[...]
      <PointData Scalars="CAPILLARY_PRESSURE">
        <DataArray type="Float64" Name="CAPILLARY_PRESSURE" format="ascii">
          3.875093196516e+005 3.857123079496e+005 3.857123079495e+005 3.875093196516e+005 3.857123079496e+005 3.875093196516e+005 3.857123079496e+005 3.875093196516e+005 3.857123079495e+005 3.875093196517e+005 3.857123079496e+005 3.875093196516e+005 3.857123079496e+005 3.875093196516e+005 3.857123079496e+005 3.875093196516e+005 3.857123079496e+005 3.875093196516e+005 3.839002219275e+005 3.839002219276e+005 3.839002219276e+005 3.839002219276e+005 3.839002219276e+005 3.839002219276e+005 3.839002219275e+005 3.839002219276e+005 3.839002219275e+005 3.820725763022e+005 3.820725763021e+005 3.820725763022e+005 3.820725763022e+005 3.820725763022e+005 3.820725763022e+005 3.820725763022e+005 3.820725763022e+005 3.820725763022e+005 3.802289251667e+005 3.802289251668e+005 3.802289251668e+005 3.802289251668e+005 3.802289251668e+005 3.802289251668e+005 3.802289251668e+005 3.802289251668e+005 3.802289251667e+005 3.783689898796e+005 3.783689898795e+005 3.783689898796e+005 3.783689898796e+005 3.783689898796e+005 3.783689898795e+005 3.783689898796e+005 3.783689898796e+005 3.783689898796e+005 3.764923956877e+005 3.764923956877e+005 3.764923956877e+005 3.764923956877e+005 3.764923956877e+005 3.764923956877e+005 3.764923956877e+005 3.764923956877e+005 3.764923956877e+005 3.745987607724e+005 3.745987607724e+005 3.745987607724e+005 3.745987607724e+005 3.745987607724e+005 3.745987607724e+005 3.745987607724e+005 3.745987607724e+005 3.745987607724e+005 3.726876831442e+005 3.726876831442e+005 3.726876831441e+005 3.726876831442e+005 3.726876831441e+005 3.726876831442e+005 3.726876831442e+005 3.726876831442e+005 3.726876831442e+005 3.707587507313e+005 3.707587507313e+005 3.707587507313e+005 3.707587507313e+005 3.707587507313e+005 3.707587507313e+005 3.707587507313e+005 3.707587507313e+005 3.707587507313e+005 3.688115360682e+005 3.688115360682e+005 3.688115360682e+005 3.688115360682e+005 3.688115360682e+005 3.688115360682e+005 3.688115360682e+005 3.688115360682e+005 3.688115360683e+005 3.668455956642e+005 3.668455956642e+005 3.668455956642e+005 3.668455956642e+005 3.668455956642e+005 3.668455956642e+005 3.668455956642e+005 3.668455956642e+005 3.668455956642e+005 3.648604682873e+005 3.648604682873e+005 3.648604682873e+005 3.648604682873e+005 3.648604682873e+005 3.648604682873e+005 3.648604682873e+005 3.648604682873e+005 3.648604682873e+005 3.628556742404e+005 3.628556742404e+005 3.628556742404e+005 3.628556742404e+005 3.628556742404e+005 3.628556742404e+005 3.628556742404e+005 3.628556742404e+005 3.628556742404e+005 3.608307143769e+005 3.608307143769e+005 3.608307143769e+005 3.608307143769e+005 3.608307143769e+005 3.608307143769e+005 3.608307143769e+005 3.608307143769e+005 3.608307143769e+005 3.587850691308e+005 3.587850691308e+005 3.587850691308e+005 3.587850691308e+005 3.587850691308e+005 3.587850691308e+005 3.587850691308e+005 3.587850691308e+005 3.587850691308e+005 3.567181973749e+005 3.567181973749e+005 3.567181973749e+005 3.567181973749e+005 3.567181973749e+005 3.567181973749e+005 3.567181973749e+005 3.567181973749e+005 3.567181973749e+005 3.546295351823e+005 3.546295351824e+005 3.546295351824e+005 3.546295351824e+005 3.546295351824e+005 3.546295351824e+005 3.546295351824e+005 3.546295351824e+005 3.546295351824e+005 3.525184944786e+005 3.525184944786e+005 3.525184944786e+005 3.525184944786e+005 3.525184944786e+005 3.525184944786e+005 3.525184944786e+005 3.525184944786e+005 3.525184944786e+005 3.503844615946e+005 3.503844615946e+005 3.503844615946e+005 3.503844615946e+005 3.503844615946e+005 3.503844615946e+005 3.503844615946e+005 3.503844615945e+005 3.503844615946e+005 3.482267957120e+005 3.482267957120e+005 3.482267957120e+005 3.482267957120e+005 3.482267957120e+005 3.482267957120e+005 3.482267957120e+005 3.482267957120e+005 3.482267957120e+005 3.460448271918e+005 3.460448271918e+005 3.460448271917e+005 3.460448271918e+005 3.460448271918e+005 3.460448271918e+005 3.460448271918e+005 3.460448271918e+005 3.460448271918e+005 3.438378557701e+005 3.438378557701e+005 3.438378557701e+005 3.438378557701e+005 3.438378557701e+005 3.438378557701e+005 3.438378557701e+005 3.438378557701e+005 3.438378557701e+005 3.416051486097e+005 3.416051486097e+005 3.416051486097e+005 3.416051486097e+005 3.416051486097e+005 3.416051486097e+005 3.416051486097e+005 3.416051486097e+005 3.416051486097e+005 3.393459381889e+005 3.393459381889e+005 3.393459381889e+005 3.393459381889e+005 3.393459381889e+005 3.393459381889e+005 3.393459381889e+005 3.393459381889e+005 3.393459381889e+005 3.370594200129e+005 3.370594200129e+005 3.370594200129e+005 3.370594200129e+005 3.370594200129e+005 3.370594200129e+005 3.370594200129e+005 3.370594200129e+005 3.370594200129e+005 3.347447501289e+005 3.347447501289e+005 3.347447501289e+005 3.347447501289e+005 3.347447501289e+005 3.347447501290e+005 3.347447501289e+005 3.347447501289e+005 3.347447501289e+005 3.324010424239e+005 3.324010424239e+005 3.324010424239e+005 3.324010424239e+005 3.324010424239e+005 3.324010424239e+005 3.324010424239e+005 3.324010424239e+005 3.324010424239e+005 3.300273656823e+005 3.300273656823e+005 3.300273656823e+005 3.300273656823e+005 3.300273656823e+005 3.300273656823e+005 3.300273656823e+005 3.300273656823e+005 3.300273656823e+005 3.276227403777e+005 3.276227403777e+005 3.276227403777e+005 3.276227403777e+005 3.276227403777e+005 3.276227403777e+005 3.276227403777e+005 3.276227403777e+005 3.276227403777e+005 3.251861351680e+005 3.251861351680e+005 3.251861351680e+005 3.251861351680e+005 3.251861351680e+005 3.251861351680e+005 3.251861351680e+005 3.251861351680e+005 3.251861351680e+005 3.227164630606e+005 3.227164630606e+005 3.227164630606e+005 3.227164630606e+005 3.227164630606e+005 3.227164630606e+005 3.227164630606e+005 3.227164630606e+005 3.227164630606e+005 3.202125772094e+005 3.202125772094e+005 3.202125772094e+005 3.202125772094e+005 3.202125772094e+005 3.202125772094e+005 3.202125772094e+005 3.202125772094e+005 3.202125772094e+005 3.176732662990e+005 3.176732662990e+005 3.176732662990e+005 3.176732662990e+005 3.176732662990e+005 3.176732662990e+005 3.176732662990e+005 3.176732662990e+005 3.176732662990e+005 3.150972494668e+005 3.150972494668e+005 3.150972494668e+005 3.150972494668e+005 3.150972494668e+005 3.150972494668e+005 3.150972494668e+005 3.150972494668e+005 3.150972494668e+005 3.124831707049e+005 3.124831707049e+005 3.124831707049e+005 3.124831707048e+005 3.124831707049e+005 3.124831707049e+005 3.124831707049e+005 3.124831707049e+005 3.124831707048e+005 3.098295926765e+005 3.098295926765e+005 3.098295926765e+005 3.098295926765e+005 3.098295926765e+005 3.098295926765e+005 3.098295926765e+005 3.098295926765e+005 3.098295926765e+005 3.071349898708e+005 3.071349898708e+005 3.071349898708e+005 3.071349898707e+005 3.071349898708e+005 3.071349898708e+005 3.071349898707e+005 3.071349898708e+005 3.071349898708e+005 3.043977410068e+005 3.043977410068e+005 3.043977410068e+005 3.043977410068e+005 3.043977410068e+005 3.043977410068e+005 3.043977410068e+005 3.043977410068e+005 3.043977410068e+005 3.016161205876e+005 3.016161205876e+005 3.016161205876e+005 3.016161205876e+005 3.016161205876e+005 3.016161205876e+005 3.016161205876e+005 3.016161205876e+005 3.016161205876e+005 2.987882894827e+005 2.987882894827e+005 2.987882894827e+005 2.987882894827e+005 2.987882894827e+005 2.987882894827e+005 2.987882894827e+005 2.987882894827e+005 2.987882894827e+005 2.959122844027e+005 2.959122844027e+005 2.959122844027e+005 2.959122844027e+005 2.959122844027e+005 2.959122844027e+005 2.959122844027e+005 2.959122844027e+005 2.959122844027e+005 2.929860061029e+005 2.929860061029e+005 2.929860061029e+005 2.929860061029e+005 2.929860061029e+005 2.929860061029e+005 2.929860061029e+005 2.929860061029e+005 2.929860061029e+005 2.900072061250e+005 2.900072061250e+005 2.900072061250e+005 2.900072061250e+005 2.900072061249e+005 2.900072061250e+005 2.900072061250e+005 2.900072061250e+005 2.900072061250e+005 2.869734718512e+005 2.869734718512e+005 2.869734718512e+005 2.869734718512e+005 2.869734718512e+005 2.869734718512e+005 2.869734718512e+005 2.869734718512e+005 2.869734718512e+005 2.838822096041e+005 2.838822096040e+005 2.838822096041e+005 2.838822096040e+005 2.838822096041e+005 2.838822096041e+005 2.838822096040e+005 2.838822096041e+005 2.838822096041e+005 2.807306254722e+005 2.807306254722e+005 2.807306254722e+005 2.807306254722e+005 2.807306254722e+005 2.807306254722e+005 2.807306254722e+005 2.807306254722e+005 2.807306254722e+005 2.775157034806e+005 2.775157034806e+005 2.775157034806e+005 2.775157034806e+005 2.775157034806e+005 2.775157034806e+005 2.775157034806e+005 2.775157034806e+005 2.775157034806e+005 2.742341806466e+005 2.742341806466e+005 2.742341806466e+005 2.742341806466e+005 2.742341806465e+005 2.742341806466e+005 2.742341806465e+005 2.742341806466e+005 2.742341806466e+005 2.708825183657e+005 2.708825183657e+005 2.708825183657e+005 2.708825183657e+005 2.708825183657e+005 2.708825183657e+005 2.708825183657e+005 2.708825183657e+005 2.708825183657e+005 2.674568694521e+005 2.674568694522e+005 2.674568694521e+005 2.674568694521e+005 2.674568694522e+005 2.674568694521e+005 2.674568694521e+005 2.674568694521e+005 2.674568694521e+005 2.639530400069e+005 2.639530400069e+005 2.639530400070e+005 2.639530400069e+005 2.639530400069e+005 2.639530400069e+005 2.639530400070e+005 2.639530400069e+005 2.639530400069e+005 2.603664450971e+005 2.603664450971e+005 2.603664450971e+005 2.603664450971e+005 2.603664450971e+005 2.603664450971e+005 2.603664450971e+005 2.603664450971e+005 2.603664450971e+005 2.566920569841e+005 2.566920569841e+005 2.566920569840e+005 2.566920569841e+005 2.566920569841e+005 2.566920569841e+005 2.566920569841e+005 2.566920569841e+005 2.566920569841e+005 2.529243443284e+005 2.529243443284e+005 2.529243443284e+005 2.529243443284e+005 2.529243443284e+005 2.529243443284e+005 2.529243443284e+005 2.529243443284e+005 2.529243443284e+005 2.490572003914e+005 2.490572003914e+005 2.490572003914e+005 2.490572003914e+005 2.490572003914e+005 2.490572003914e+005 2.490572003914e+005 2.490572003914e+005 2.490572003914e+005 2.450838577252e+005 2.450838577252e+005 2.450838577252e+005 2.450838577252e+005 2.450838577252e+005 2.450838577252e+005 2.450838577252e+005 2.450838577252e+005 2.450838577253e+005 2.409967861444e+005 2.409967861444e+005 2.409967861444e+005 2.409967861444e+005 2.409967861444e+005 2.409967861444e+005 2.409967861444e+005 2.409967861444e+005 2.409967861444e+005 2.367875698401e+005 2.367875698401e+005 2.367875698401e+005 2.367875698401e+005 2.367875698401e+005 2.367875698401e+005 2.367875698401e+005 2.367875698401e+005 2.367875698401e+005 2.324467582407e+005 2.324467582406e+005 2.324467582406e+005 2.324467582406e+005 2.324467582406e+005 2.324467582406e+005 2.324467582407e+005 2.324467582406e+005 2.324467582406e+005 2.279636835003e+005 2.279636835003e+005 2.279636835003e+005 2.279636835004e+005 2.279636835003e+005 2.279636835004e+005 2.279636835003e+005 2.279636835003e+005 2.279636835004e+005 2.233262351055e+005 2.233262351055e+005 2.233262351055e+005 2.233262351055e+005 2.233262351055e+005 2.233262351055e+005 2.233262351055e+005 2.233262351055e+005 2.233262351055e+005 2.185205787083e+005 2.185205787083e+005 2.185205787083e+005 2.185205787083e+005 2.185205787083e+005 2.185205787083e+005 2.185205787083e+005 2.185205787083e+005 2.185205787083e+005 2.135308014990e+005 2.135308014990e+005 2.135308014990e+005 2.135308014990e+005 2.135308014990e+005 2.135308014990e+005 2.135308014990e+005 2.135308014990e+005 2.135308014990e+005 2.083384596477e+005 2.083384596477e+005 2.083384596477e+005 2.083384596477e+005 2.083384596477e+005 2.083384596477e+005 2.083384596477e+005 2.083384596477e+005 2.083384596477e+005 2.029219937572e+005 2.029219937572e+005 2.029219937572e+005 2.029219937572e+005 2.029219937572e+005 2.029219937572e+005 2.029219937572e+005 2.029219937572e+005 2.029219937572e+005 1.972559638255e+005 1.972559638255e+005 1.972559638255e+005 1.972559638255e+005 1.972559638255e+005 1.972559638255e+005 1.972559638255e+005 1.972559638255e+005 1.972559638255e+005 1.913100302422e+005 1.913100302422e+005 1.913100302422e+005 1.913100302422e+005 1.913100302422e+005 1.913100302422e+005 1.913100302422e+005 1.913100302422e+005 1.913100302422e+005 1.850475619423e+005 1.850475619424e+005 1.850475619423e+005 1.850475619424e+005 1.850475619424e+005 1.850475619423e+005 1.850475619424e+005 1.850475619424e+005 1.850475619424e+005 1.784236839819e+005 1.784236839819e+005 1.784236839820e+005 1.784236839820e+005 1.784236839820e+005 1.784236839820e+005 1.784236839820e+005 1.784236839820e+005 1.784236839820e+005 1.713825028162e+005 1.713825028163e+005 1.713825028163e+005 1.713825028163e+005 1.713825028163e+005 1.713825028163e+005 1.713825028163e+005 1.713825028163e+005 1.713825028163e+005 1.638531441939e+005 1.638531441938e+005 1.638531441938e+005 1.638531441937e+005 1.638531441937e+005 1.638531441938e+005 1.638531441938e+005 1.638531441937e+005 1.638531441936e+005 1.557438454687e+005 1.557438454686e+005 1.557438454685e+005 1.557438454684e+005 1.557438454684e+005 1.557438454686e+005 1.557438454684e+005 1.557438454682e+005 1.557438454681e+005 1.469322888164e+005 1.469322888162e+005 1.469322888160e+005 1.469322888158e+005 1.469322888159e+005 1.469322888163e+005 1.469322888162e+005 1.469322888161e+005 1.469322888159e+005 1.372491440045e+005 1.372491440045e+005 1.372491440050e+005 1.372491440051e+005 1.372491440046e+005 1.372491440050e+005 1.372491440054e+005 1.372491440059e+005 1.372491440055e+005 1.264506783654e+005 1.264506783650e+005 1.264506783672e+005 1.264506783684e+005 1.264506783664e+005 1.264506783652e+005 1.264506783665e+005 1.264506783683e+005 1.264506783675e+005 1.141685659841e+005 1.141685659811e+005 1.141685659832e+005 1.141685659872e+005 1.141685659834e+005 1.141685659795e+005 1.141685659815e+005 1.141685659835e+005 1.141685659814e+005 9.979977532805e+004 9.979977531945e+004 9.979977531505e+004 9.979977532181e+004 9.979977532152e+004 9.979977531636e+004 9.979977531933e+004 9.979977531714e+004 9.979977531348e+004 8.225187524414e+004 8.225187523355e+004 8.225187521739e+004 8.225187522337e+004 8.225187523380e+004 8.225187523414e+004 8.225187523907e+004 8.225187522714e+004 8.225187522694e+004 5.924466761494e+004 5.924466762323e+004 5.924466760743e+004 5.924466759978e+004 5.924466762065e+004 5.924466762676e+004 5.924466763310e+004 5.924466761309e+004 5.924466763216e+004 2.517681484299e+004 2.517681492503e+004 2.517681494385e+004 2.517681490233e+004 2.517681490752e+004 2.517681490505e+004 2.517681490606e+004 2.517681488467e+004 2.517681495857e+004 -2.433991761193e+004 -2.433991655291e+004 -2.433991609755e+004 -2.433991667072e+004 -2.433991672186e+004 -2.433991687905e+004 -2.433991689847e+004 -2.433991705948e+004 -2.433991614717e+004 -7.579337293199e+004 -7.579337162227e+004 -7.579337032582e+004 -7.579337148771e+004 -7.579337212105e+004 -7.579337207206e+004 -7.579337229994e+004 -7.579337112407e+004 -7.579337076975e+004 -1.272244290370e+005 -1.272244272480e+005 -1.272244261956e+005 -1.272244265697e+005 -1.272244261332e+005 -1.272244246800e+005 -1.272244264775e+005 -1.272244259141e+005 -1.272244254669e+005 -1.786486603361e+005 -1.786486574733e+005 -1.786486568187e+005 -1.786486550473e+005 -1.786486551893e+005 -1.786486549602e+005 -1.786486552535e+005 -1.786486539460e+005 -1.786486532083e+005 -2.300612684506e+005 -2.300612675394e+005 -2.300612665312e+005 -2.300612652023e+005 -2.300612646327e+005 -2.300612637748e+005 -2.300612639033e+005 -2.300612625203e+005 -2.300612630510e+005 -2.814637249624e+005 -2.814637248168e+005 -2.814637226649e+005 -2.814637239859e+005 -2.814637217107e+005 -2.814637212994e+005 -2.814637210366e+005 -2.814637199028e+005 -2.814637188124e+005 -3.328556112460e+005 -3.328556102583e+005 -3.328556112067e+005 -3.328556089467e+005 -3.328556086394e+005 -3.328556075035e+005 -3.328556072884e+005 -3.328556071037e+005 -3.328556060304e+005 -3.842370443578e+005 -3.842370459387e+005 -3.842370453094e+005 -3.842370451406e+005 -3.842370437239e+005 -3.842370433041e+005 -3.842370424587e+005 -3.842370410693e+005 -3.842370403975e+005 -4.356080113182e+005 -4.356080131997e+005 -4.356080139356e+005 -4.356080124802e+005 -4.356080108766e+005 -4.356080109879e+005 -4.356080094214e+005 -4.356080080801e+005 -4.356080079271e+005 -4.869685200183e+005 -4.869685223553e+005 -4.869685222131e+005 -4.869685221865e+005 -4.869685212203e+005 -4.869685194504e+005 -4.869685182667e+005 -4.869685179763e+005 -4.869685173027e+005 -5.383185817522e+005 -5.383185798115e+005 -5.383185806762e+005 -5.383185806154e+005 -5.383185803059e+005 -5.383185777496e+005 -5.383185767308e+005 -5.383185775326e+005 -5.383185772031e+005 -5.896581967251e+005 -5.896581961585e+005 -5.896581959231e+005 -5.896581958309e+005 -5.896581948649e+005 -5.896581926321e+005 -5.896581932804e+005 -5.896581926506e+005 -5.896581929820e+005 -6.409873759635e+005 -6.409873751861e+005 -6.409873751392e+005 -6.409873737132e+005 -6.409873735632e+005 -6.409873725219e+005 -6.409873722452e+005 -6.409873716554e+005 -6.409873723656e+005 -6.923061247799e+005 -6.923061238798e+005 -6.923061242501e+005 -6.923061238848e+005 -6.923061227522e+005 -6.923061226350e+005 -6.923061220158e+005 -6.923061219470e+005 -6.923061207530e+005 -7.436144496977e+005 -7.436144503676e+005 -7.436144511436e+005 -7.436144506841e+005 -7.436144499492e+005 -7.436144502515e+005 -7.436144496032e+005 -7.436144496375e+005 -7.436144493648e+005 -7.949123611354e+005 -7.949123619062e+005 -7.949123624491e+005 -7.949123618663e+005 -7.949123618220e+005 -7.949123620448e+005 -7.949123612295e+005 -7.949123617618e+005 -7.949123618318e+005 -8.461998654484e+005 -8.461998655618e+005 -8.461998659056e+005 -8.461998660316e+005 -8.461998648901e+005 -8.461998647301e+005 -8.461998650350e+005 -8.461998653006e+005 -8.461998651435e+005 -8.974769671725e+005 -8.974769679947e+005 -8.974769686261e+005 -8.974769685539e+005 -8.974769682502e+005 -8.974769675724e+005 -8.974769675728e+005 -8.974769677433e+005 -8.974769678557e+005 -9.487436769318e+005 -9.487436773642e+005 -9.487436776164e+005 -9.487436774656e+005 -9.487436775587e+005 -9.487436771007e+005 -9.487436771007e+005 -9.487436772646e+005 -9.487436771071e+005 -1.000000000000e+006 -1.000000000000e+006 -1.000000000000e+006 -1.000000000000e+006 -1.000000000000e+006 -1.000000000000e+006 -1.000000000000e+006 -1.000000000000e+006 -1.000000000000e+006 
        </DataArray>
        <DataArray type="Float64" Name="NONWET_PRESSURE" format="ascii">