<?xml version="1.0"?>
<VTKFile type="UnstructuredGrid" version="0.1" byte_order="LittleEndian">
  <UnstructuredGrid>
    <Piece NumberOfPoints="909" NumberOfCells="800">
      <Points>
        <DataArray type="Float64" NumberOfComponents="3" format="ascii">
          0.000000000000e+000 0.000000000000e+000 0.000000000000e+000
          2.000000000000e+000 0.000000000000e+000 0.000000000000e+000
          2.000000000000e+000 2.500000000000e+000 0.000000000000e+000
          0.000000000000e+000 2.500000000000e+000 0.000000000000e+000
          2.000000000000e+000 5.000000000000e+000 0.000000000000e+000
          0.000000000000e+000 5.000000000000e+000 0.000000000000e+000
          2.000000000000e+000 7.500000000000e+000 0.000000000000e+000
          0.000000000000e+000 7.500000000000e+000 0.000000000000e+000
          2.000000000000e+000 1.000000000000e+001 0.000000000000e+000
          0.000000000000e+000 1.000000000000e+001 0.000000000000e+000
          2.000000000000e+000 1.250000000000e+001 0.000000000000e+000
          0.000000000000e+000 1.250000000000e+001 0.000000000000e+000
          2.000000000000e+000 1.500000000000e+001 0.000000000000e+000
          0.000000000000e+000 1.500000000000e+001 0.000000000000e+000
          2.000000000000e+000 1.750000000000e+001 0.000000000000e+000
          0.000000000000e+000 1.750000000000e+001 0.000000000000e+000
          2.000000000000e+000 2.000000000000e+001 0.000000000000e+000
          0.000000000000e+000 2.000000000000e+001 0.000000000000e+000
          4.000000000000e+000 0.000000000000e+000 0.000000000000e+000
          4.000000000000e+000 2.500000000000e+000 0.000000000000e+000
          4.000000000000e+000 5.000000000000e+000 0.000000000000e+000
          4.000000000000e+000 7.500000000000e+000 0.000000000000e+000
          4.000000000000e+000 1.000000000000e+001 0.000000000000e+000
          4.000000000000e+000 1.250000000000e+001 0.000000000000e+000
          4.000000000000e+000 1.500000000000e+001 0.000000000000e+000
          4.000000000000e+000 1.750000000000e+001 0.000000000000e+000
          4.000000000000e+000 2.000000000000e+001 0.000000000000e+000
          6.000000000000e+000 0.000000000000e+000 0.000000000000e+000
          6.000000000000e+000 2.500000000000e+000 0.000000000000e+000
          6.000000000000e+000 5.000000000000e+000 0.000000000000e+000
          6.000000000000e+000 7.500000000000e+000 0.000000000000e+000
          6.000000000000e+000 1.000000000000e+001 0.000000000000e+000
          6.000000000000e+000 1.250000000000e+001 0.000000000000e+000
          6.000000000000e+000 1.500000000000e+001 0.000000000000e+000
          6.000000000000e+000 1.750000000000e+001 0.000000000000e+000
          6.000000000000e+000 2.000000000000e+001 0.000000000000e+000
          8.000000000000e+000 0.000000000000e+000 0.000000000000e+000
          8.000000000000e+000 2.500000000000e+000 0.000000000000e+000
          8.000000000000e+000 5.000000000000e+000 0.000000000000e+000
          8.000000000000e+000 7.500000000000e+000 0.000000000000e+000
          8.000000000000e+000 1.000000000000e+001 0.000000000000e+000
          8.000000000000e+000 1.250000000000e+001 0.000000000000e+000
          8.000000000000e+000 1.500000000000e+001 0.000000000000e+000
          8.000000000000e+000 1.750000000000e+001 0.000000000000e+000
          8.000000000000e+000 2.000000000000e+001 0.000000000000e+000
          1.000000000000e+001 0.000000000000e+000 0.000000000000e+000
          1.000000000000e+001 2.500000000000e+000 0.000000000000e+000
          1.000000000000e+001 5.000000000000e+000 0.000000000000e+000
          1.000000000000e+001 7.500000000000e+000 0.000000000000e+000
          1.000000000000e+001 1.000000000000e+001 0.000000000000e+000
          1.000000000000e+001 1.250000000000e+001 0.000000000000e+000
          1.000000000000e+001 1.500000000000e+001 0.000000000000e+000
          1.000000000000e+001 1.750000000000e+001 0.000000000000e+000
          1.000000000000e+001 2.000000000000e+001 0.000000000000e+000
          1.200000000000e+001 0.000000000000e+000 0.000000000000e+000
          1.200000000000e+001 2.500000000000e+000 0.000000000000e+000
          1.200000000000e+001 5.000000000000e+000 0.000000000000e+000
          1.200000000000e+001 7.500000000000e+000 0.000000000000e+000
          1.200000000000e+001 1.000000000000e+001 0.000000000000e+000
          1.200000000000e+001 1.250000000000e+001 0.000000000000e+000
          1.200000000000e+001 1.500000000000e+001 0.000000000000e+000
          1.200000000000e+001 1.750000000000e+001 0.000000000000e+000
          1.200000000000e+001 2.000000000000e+001 0.000000000000e+000
          1.400000000000e+001 0.000000000000e+000 0.000000000000e+000
          1.400000000000e+001 2.500000000000e+000 0.000000000000e+000
          1.400000000000e+001 5.000000000000e+000 0.000000000000e+000
          1.400000000000e+001 7.500000000000e+000 0.000000000000e+000
          1.400000000000e+001 1.000000000000e+001 0.000000000000e+000
          1.400000000000e+001 1.250000000000e+001 0.000000000000e+000
          1.400000000000e+001 1.500000000000e+001 0.000000000000e+000
          1.400000000000e+001 1.750000000000e+001 0.000000000000e+000
          1.400000000000e+001 2.000000000000e+001 0.000000000000e+000
          1.600000000000e+001 0.000000000000e+000 0.000000000000e+000
          1.600000000000e+001 2.500000000000e+000 0.000000000000e+000
          1.600000000000e+001 5.000000000000e+000 0.000000000000e+000
          1.600000000000e+001 7.500000000000e+000 0.000000000000e+000
          1.600000000000e+001 1.000000000000e+001 0.000000000000e+000
          1.600000000000e+001 1.250000000000e+001 0.000000000000e+000
          1.600000000000e+001 1.500000000000e+001 0.000000000000e+000
          1.600000000000e+001 1.750000000000e+001 0.000000000000e+000
          1.600000000000e+001 2.000000000000e+001 0.000000000000e+000
          1.800000000000e+001 0.000000000000e+000 0.000000000000e+000
          1.800000000000e+001 2.500000000000e+000 0.000000000000e+000
          1.800000000000e+001 5.000000000000e+000 0.000000000000e+000
          1.800000000000e+001 7.500000000000e+000 0.000000000000e+000
          1.800000000000e+001 1.000000000000e+001 0.000000000000e+000
          1.800000000000e+001 1.250000000000e+001 0.000000000000e+000
          1.800000000000e+001 1.500000000000e+001 0.000000000000e+000
          1.800000000000e+001 1.750000000000e+001 0.000000000000e+000
          1.800000000000e+001 2.000000000000e+001 0.000000000000e+000
          2.000000000000e+001 0.000000000000e+000 0.000000000000e+000
          2.000000000000e+001 2.500000000000e+000 0.000000000000e+000
          2.000000000000e+001 5.000000000000e+000 0.000000000000e+000
          2.000000000000e+001 7.500000000000e+000 0.000000000000e+000
          2.000000000000e+001 1.000000000000e+001 0.000000000000e+000
          2.000000000000e+001 1.250000000000e+001 0.000000000000e+000
          2.000000000000e+001 1.500000000000e+001 0.000000000000e+000
          2.000000000000e+001 1.750000000000e+001 0.000000000000e+000
          2.000000000000e+001 2.000000000000e+001 0.000000000000e+000
          2.200000000000e+001 0.000000000000e+000 0.000000000000e+000
          2.200000000000e+001 2.500000000000e+000 0.000000000000e+000
          2.200000000000e+001 5.000000000000e+000 0.000000000000e+000
          2.200000000000e+001 7.500000000000e+000 0.000000000000e+000
          2.200000000000e+001 1.000000000000e+001 0.000000000000e+000
          2.200000000000e+001 1.250000000000e+001 0.000000000000e+000
          2.200000000000e+001 1.500000000000e+001 0.000000000000e+000
          2.200000000000e+001 1.750000000000e+001 0.000000000000e+000
          2.200000000000e+001 2.000000000000e+001 0.000000000000e+000
          2.400000000000e+001 0.000000000000e+000 0.000000000000e+000
          2.400000000000e+001 2.500000000000e+000 0.000000000000e+000
          2.400000000000e+001 5.000000000000e+000 0.000000000000e+000
          2.400000000000e+001 7.500000000000e+000 0.000000000000e+000
          2.400000000000e+001 1.000000000000e+001 0.000000000000e+000
          2.400000000000e+001 1.250000000000e+001 0.000000000000e+000
          2.400000000000e+001 1.500000000000e+001 0.000000000000e+000
          2.400000000000e+001 1.750000000000e+001 0.000000000000e+000
          2.400000000000e+001 2.000000000000e+001 0.000000000000e+000
          2.600000000000e+001 0.000000000000e+000 0.000000000000e+000
          2.600000000000e+001 2.500000000000e+000 0.000000000000e+000
          2.600000000000e+001 5.000000000000e+000 0.000000000000e+000
          2.600000000000e+001 7.500000000000e+000 0.000000000000e+000
          2.600000000000e+001 1.000000000000e+001 0.000000000000e+000
          2.600000000000e+001 1.250000000000e+001 0.000000000000e+000
          2.600000000000e+001 1.500000000000e+001 0.000000000000e+000
          2.600000000000e+001 1.750000000000e+001 0.000000000000e+000
          2.600000000000e+001 2.000000000000e+001 0.000000000000e+000
          2.800000000000e+001 0.000000000000e+000 0.000000000000e+000
          2.800000000000e+001 2.500000000000e+000 0.000000000000e+000
          2.800000000000e+001 5.000000000000e+000 0.000000000000e+000
          2.800000000000e+001 7.500000000000e+000 0.000000000000e+000
          2.800000000000e+001 1.000000000000e+001 0.000000000000e+000
          2.800000000000e+001 1.250000000000e+001 0.000000000000e+000
          2.800000000000e+001 1.500000000000e+001 0.000000000000e+000
          2.800000000000e+001 1.750000000000e+001 0.000000000000e+000
          2.800000000000e+001 2.000000000000e+001 0.000000000000e+000
          3.000000000000e+001 0.000000000000e+000 0.000000000000e+000
          3.000000000000e+001 2.500000000000e+000 0.000000000000e+000
          3.000000000000e+001 5.000000000000e+000 0.000000000000e+000
          3.000000000000e+001 7.500000000000e+000 0.000000000000e+000
[...]
      <PointData Scalars="CAPILLARY_PRESSURE">
        <DataArray type="Float64" Name="CAPILLARY_PRESSURE" format="ascii">
          3.578972981306e+005 3.559019212239e+005 3.559019212239e+005 3.578972981306e+005 3.559019212239e+005 3.578972981306e+005 3.559019212239e+005 3.578972981306e+005 3.559019212239e+005 3.578972981306e+005 3.559019212239e+005 3.578972981306e+005 3.559019212239e+005 3.578972981306e+005 3.559019212239e+005 3.578972981306e+005 3.559019212239e+005 3.578972981306e+005 3.539061012483e+005 3.539061012483e+005 3.539061012483e+005 3.539061012483e+005 3.539061012483e+005 3.539061012483e+005 3.539061012483e+005 3.539061012483e+005 3.539061012483e+005 3.519095423240e+005 3.519095423240e+005 3.519095423240e+005 3.519095423240e+005 3.519095423240e+005 3.519095423240e+005 3.519095423240e+005 3.519095423240e+005 3.519095423240e+005 3.499118791768e+005 3.499118791768e+005 3.499118791768e+005 3.499118791768e+005 3.499118791768e+005 3.499118791768e+005 3.499118791768e+005 3.499118791768e+005 3.499118791768e+005 3.479127313249e+005 3.479127313249e+005 3.479127313249e+005 3.479127313249e+005 3.479127313249e+005 3.479127313249e+005 3.479127313249e+005 3.479127313249e+005 3.479127313249e+005 3.459116892566e+005 3.459116892566e+005 3.459116892566e+005 3.459116892566e+005 3.459116892566e+005 3.459116892566e+005 3.459116892566e+005 3.459116892566e+005 3.459116892566e+005 3.439083191185e+005 3.439083191185e+005 3.439083191185e+005 3.439083191185e+005 3.439083191185e+005 3.439083191185e+005 3.439083191185e+005 3.439083191185e+005 3.439083191185e+005 3.419021630510e+005 3.419021630510e+005 3.419021630510e+005 3.419021630510e+005 3.419021630510e+005 3.419021630510e+005 3.419021630510e+005 3.419021630510e+005 3.419021630510e+005 3.398927402374e+005 3.398927402374e+005 3.398927402374e+005 3.398927402374e+005 3.398927402374e+005 3.398927402374e+005 3.398927402374e+005 3.398927402374e+005 3.398927402374e+005 3.378795467141e+005 3.378795467141e+005 3.378795467141e+005 3.378795467141e+005 3.378795467141e+005 3.378795467141e+005 3.378795467141e+005 3.378795467141e+005 3.378795467141e+005 3.358620548683e+005 3.358620548683e+005 3.358620548683e+005 3.358620548683e+005 3.358620548683e+005 3.358620548683e+005 3.358620548683e+005 3.358620548683e+005 3.358620548683e+005 3.338397130786e+005 3.338397130786e+005 3.338397130786e+005 3.338397130786e+005 3.338397130786e+005 3.338397130786e+005 3.338397130786e+005 3.338397130786e+005 3.338397130786e+005 3.318119448156e+005 3.318119448156e+005 3.318119448156e+005 3.318119448156e+005 3.318119448156e+005 3.318119448156e+005 3.318119448156e+005 3.318119448156e+005 3.318119448156e+005 3.297781473453e+005 3.297781473453e+005 3.297781473453e+005 3.297781473453e+005 3.297781473453e+005 3.297781473453e+005 3.297781473453e+005 3.297781473453e+005 3.297781473453e+005 3.277376902547e+005 3.277376902547e+005 3.277376902547e+005 3.277376902547e+005 3.277376902547e+005 3.277376902547e+005 3.277376902547e+005 3.277376902547e+005 3.277376902547e+005 3.256899139414e+005 3.256899139414e+005 3.256899139414e+005 3.256899139414e+005 3.256899139414e+005 3.256899139414e+005 3.256899139414e+005 3.256899139414e+005 3.256899139414e+005 3.236341281034e+005 3.236341281034e+005 3.236341281034e+005 3.236341281034e+005 3.236341281034e+005 3.236341281034e+005 3.236341281034e+005 3.236341281034e+005 3.236341281034e+005 3.215696102121e+005 3.215696102121e+005 3.215696102121e+005 3.215696102121e+005 3.215696102121e+005 3.215696102121e+005 3.215696102121e+005 3.215696102121e+005 3.215696102121e+005 3.194956039335e+005 3.194956039335e+005 3.194956039335e+005 3.194956039335e+005 3.194956039335e+005 3.194956039335e+005 3.194956039335e+005 3.194956039335e+005 3.194956039335e+005 3.174113174595e+005 3.174113174595e+005 3.174113174595e+005 3.174113174595e+005 3.174113174595e+005 3.174113174595e+005 3.174113174595e+005 3.174113174595e+005 3.174113174595e+005 3.153159217183e+005 3.153159217183e+005 3.153159217183e+005 3.153159217183e+005 3.153159217183e+005 3.153159217183e+005 3.153159217183e+005 3.153159217183e+005 3.153159217183e+005 3.132085484393e+005 3.132085484393e+005 3.132085484393e+005 3.132085484393e+005 3.132085484393e+005 3.132085484393e+005 3.132085484393e+005 3.132085484393e+005 3.132085484393e+005 3.110882880480e+005 3.110882880480e+005 3.110882880480e+005 3.110882880480e+005 3.110882880480e+005 3.110882880480e+005 3.110882880480e+005 3.110882880480e+005 3.110882880480e+005 3.089541873730e+005 3.089541873730e+005 3.089541873730e+005 3.089541873730e+005 3.089541873730e+005 3.089541873730e+005 3.089541873730e+005 3.089541873730e+005 3.089541873730e+005 3.068052471436e+005 3.068052471436e+005 3.068052471436e+005 3.068052471436e+005 3.068052471436e+005 3.068052471436e+005 3.068052471436e+005 3.068052471436e+005 3.068052471436e+005 3.046404192564e+005 3.046404192564e+005 3.046404192564e+005 3.046404192564e+005 3.046404192564e+005 3.046404192564e+005 3.046404192564e+005 3.046404192564e+005 3.046404192564e+005 3.024586037893e+005 3.024586037893e+005 3.024586037893e+005 3.024586037893e+005 3.024586037893e+005 3.024586037893e+005 3.024586037893e+005 3.024586037893e+005 3.024586037893e+005 3.002586457335e+005 3.002586457335e+005 3.002586457335e+005 3.002586457335e+005 3.002586457336e+005 3.002586457335e+005 3.002586457335e+005 3.002586457335e+005 3.002586457335e+005 2.980393314162e+005 2.980393314162e+005 2.980393314162e+005 2.980393314162e+005 2.980393314162e+005 2.980393314162e+005 2.980393314162e+005 2.980393314162e+005 2.980393314162e+005 2.957993845774e+005 2.957993845774e+005 2.957993845774e+005 2.957993845774e+005 2.957993845774e+005 2.957993845774e+005 2.957993845774e+005 2.957993845774e+005 2.957993845774e+005 2.935374620625e+005 2.935374620625e+005 2.935374620625e+005 2.935374620625e+005 2.935374620625e+005 2.935374620625e+005 2.935374620625e+005 2.935374620625e+005 2.935374620625e+005 2.912521490848e+005 2.912521490848e+005 2.912521490848e+005 2.912521490848e+005 2.912521490847e+005 2.912521490848e+005 2.912521490848e+005 2.912521490848e+005 2.912521490847e+005 2.889419540054e+005 2.889419540054e+005 2.889419540054e+005 2.889419540054e+005 2.889419540054e+005 2.889419540054e+005 2.889419540054e+005 2.889419540054e+005 2.889419540054e+005 2.866053025722e+005 2.866053025722e+005 2.866053025722e+005 2.866053025722e+005 2.866053025722e+005 2.866053025722e+005 2.866053025722e+005 2.866053025722e+005 2.866053025722e+005 2.842405315471e+005 2.842405315471e+005 2.842405315471e+005 2.842405315471e+005 2.842405315471e+005 2.842405315471e+005 2.842405315471e+005 2.842405315471e+005 2.842405315471e+005 2.818458816423e+005 2.818458816423e+005 2.818458816423e+005 2.818458816423e+005 2.818458816423e+005 2.818458816423e+005 2.818458816423e+005 2.818458816423e+005 2.818458816423e+005 2.794194896755e+005 2.794194896755e+005 2.794194896755e+005 2.794194896755e+005 2.794194896755e+005 2.794194896755e+005 2.794194896755e+005 2.794194896755e+005 2.794194896755e+005 2.769593798331e+005 2.769593798331e+005 2.769593798331e+005 2.769593798331e+005 2.769593798331e+005 2.769593798331e+005 2.769593798331e+005 2.769593798331e+005 2.769593798331e+005 2.744634539210e+005 2.744634539210e+005 2.744634539210e+005 2.744634539210e+005 2.744634539210e+005 2.744634539210e+005 2.744634539210e+005 2.744634539210e+005 2.744634539210e+005 2.719294804534e+005 2.719294804534e+005 2.719294804534e+005 2.719294804534e+005 2.719294804534e+005 2.719294804534e+005 2.719294804534e+005 2.719294804534e+005 2.719294804534e+005 2.693550824114e+005 2.693550824114e+005 2.693550824114e+005 2.693550824114e+005 2.693550824114e+005 2.693550824114e+005 2.693550824114e+005 2.693550824114e+005 2.693550824114e+005 2.667377234675e+005 2.667377234675e+005 2.667377234675e+005 2.667377234675e+005 2.667377234675e+005 2.667377234675e+005 2.667377234675e+005 2.667377234675e+005 2.667377234675e+005 2.640746924389e+005 2.640746924389e+005 2.640746924389e+005 2.640746924389e+005 2.640746924389e+005 2.640746924389e+005 2.640746924389e+005 2.640746924389e+005 2.640746924389e+005 2.613630856841e+005 2.613630856841e+005 2.613630856841e+005 2.613630856841e+005 2.613630856841e+005 2.613630856841e+005 2.613630856841e+005 2.613630856841e+005 2.613630856841e+005 2.585997871050e+005 2.585997871050e+005 2.585997871050e+005 2.585997871050e+005 2.585997871050e+005 2.585997871050e+005 2.585997871050e+005 2.585997871050e+005 2.585997871050e+005 2.557814453470e+005 2.557814453470e+005 2.557814453470e+005 2.557814453470e+005 2.557814453470e+005 2.557814453470e+005 2.557814453470e+005 2.557814453470e+005 2.557814453470e+005 2.529044477055e+005 2.529044477055e+005 2.529044477055e+005 2.529044477055e+005 2.529044477055e+005 2.529044477055e+005 2.529044477055e+005 2.529044477055e+005 2.529044477055e+005 2.499648901441e+005 2.499648901441e+005 2.499648901441e+005 2.499648901441e+005 2.499648901441e+005 2.499648901441e+005 2.499648901441e+005 2.499648901441e+005 2.499648901441e+005 2.469585426981e+005 2.469585426981e+005 2.469585426981e+005 2.469585426981e+005 2.469585426981e+005 2.469585426981e+005 2.469585426981e+005 2.469585426981e+005 2.469585426981e+005 2.438808093747e+005 2.438808093747e+005 2.438808093747e+005 2.438808093747e+005 2.438808093747e+005 2.438808093747e+005 2.438808093747e+005 2.438808093747e+005 2.438808093747e+005 2.407266814519e+005 2.407266814519e+005 2.407266814519e+005 2.407266814519e+005 2.407266814519e+005 2.407266814519e+005 2.407266814520e+005 2.407266814519e+005 2.407266814519e+005 2.374906828180e+005 2.374906828180e+005 2.374906828180e+005 2.374906828180e+005 2.374906828180e+005 2.374906828180e+005 2.374906828180e+005 2.374906828180e+005 2.374906828180e+005 2.341668056504e+005 2.341668056504e+005 2.341668056504e+005 2.341668056504e+005 2.341668056504e+005 2.341668056504e+005 2.341668056504e+005 2.341668056504e+005 2.341668056504e+005 2.307484342996e+005 2.307484342996e+005 2.307484342996e+005 2.307484342996e+005 2.307484342996e+005 2.307484342996e+005 2.307484342996e+005 2.307484342996e+005 2.307484342996e+005 2.272282546639e+005 2.272282546639e+005 2.272282546639e+005 2.272282546639e+005 2.272282546639e+005 2.272282546639e+005 2.272282546639e+005 2.272282546639e+005 2.272282546639e+005 2.235981455833e+005 2.235981455832e+005 2.235981455832e+005 2.235981455833e+005 2.235981455832e+005 2.235981455832e+005 2.235981455832e+005 2.235981455832e+005 2.235981455833e+005 2.198490477608e+005 2.198490477608e+005 2.198490477608e+005 2.198490477608e+005 2.198490477608e+005 2.198490477608e+005 2.198490477608e+005 2.198490477608e+005 2.198490477608e+005 2.159708043334e+005 2.159708043334e+005 2.159708043334e+005 2.159708043334e+005 2.159708043334e+005 2.159708043334e+005 2.159708043334e+005 2.159708043334e+005 2.159708043334e+005 2.119519653090e+005 2.119519653090e+005 2.119519653090e+005 2.119519653090e+005 2.119519653090e+005 2.119519653090e+005 2.119519653090e+005 2.119519653090e+005 2.119519653090e+005 2.077795454174e+005 2.077795454174e+005 2.077795454174e+005 2.077795454174e+005 2.077795454174e+005 2.077795454174e+005 2.077795454174e+005 2.077795454174e+005 2.077795454174e+005 2.034387211396e+005 2.034387211396e+005 2.034387211396e+005 2.034387211396e+005 2.034387211396e+005 2.034387211396e+005 2.034387211396e+005 2.034387211396e+005 2.034387211396e+005 1.989124472101e+005 1.989124472101e+005 1.989124472101e+005 1.989124472101e+005 1.989124472101e+005 1.989124472101e+005 1.989124472101e+005 1.989124472101e+005 1.989124472101e+005 1.941809648795e+005 1.941809648795e+005 1.941809648794e+005 1.941809648795e+005 1.941809648794e+005 1.941809648795e+005 1.941809648795e+005 1.941809648795e+005 1.941809648794e+005 1.892211622662e+005 1.892211622662e+005 1.892211622662e+005 1.892211622662e+005 1.892211622662e+005 1.892211622662e+005 1.892211622662e+005 1.892211622662e+005 1.892211622662e+005 1.840057289728e+005 1.840057289728e+005 1.840057289728e+005 1.840057289728e+005 1.840057289728e+005 1.840057289728e+005 1.840057289728e+005 1.840057289728e+005 1.840057289728e+005 1.785020189823e+005 1.785020189823e+005 1.785020189823e+005 1.785020189823e+005 1.785020189823e+005 1.785020189823e+005 1.785020189823e+005 1.785020189823e+005 1.785020189823e+005 1.726704911483e+005 1.726704911483e+005 1.726704911483e+005 1.726704911483e+005 1.726704911483e+005 1.726704911483e+005 1.726704911483e+005 1.726704911483e+005 1.726704911483e+005 1.664625234038e+005 1.664625234038e+005 1.664625234038e+005 1.664625234038e+005 1.664625234038e+005 1.664625234038e+005 1.664625234038e+005 1.664625234038e+005 1.664625234038e+005 1.598172725369e+005 1.598172725369e+005 1.598172725369e+005 1.598172725369e+005 1.598172725369e+005 1.598172725369e+005 1.598172725369e+005 1.598172725369e+005 1.598172725369e+005 1.526570308041e+005 1.526570308042e+005 1.526570308041e+005 1.526570308042e+005 1.526570308041e+005 1.526570308041e+005 1.526570308042e+005 1.526570308042e+005 1.526570308041e+005 1.448801180401e+005 1.448801180401e+005 1.448801180401e+005 1.448801180401e+005 1.448801180401e+005 1.448801180401e+005 1.448801180401e+005 1.448801180401e+005 1.448801180401e+005 1.363495286907e+005 1.363495286907e+005 1.363495286907e+005 1.363495286907e+005 1.363495286907e+005 1.363495286907e+005 1.363495286907e+005 1.363495286907e+005 1.363495286907e+005 1.268738105385e+005 1.268738105385e+005 1.268738105385e+005 1.268738105385e+005 1.268738105385e+005 1.268738105385e+005 1.268738105385e+005 1.268738105385e+005 1.268738105384e+005 1.161728930704e+005 1.161728930706e+005 1.161728930704e+005 1.161728930705e+005 1.161728930704e+005 1.161728930705e+005 1.161728930705e+005 1.161728930703e+005 1.161728930705e+005 1.038117191593e+005 1.038117191585e+005 1.038117191595e+005 1.038117191590e+005 1.038117191592e+005 1.038117191589e+005 1.038117191587e+005 1.038117191593e+005 1.038117191585e+005 8.905752416101e+004 8.905752416532e+004 8.905752416096e+004 8.905752416334e+004 8.905752416194e+004 8.905752416315e+004 8.905752416366e+004 8.905752416086e+004 8.905752416473e+004 7.052933189581e+004 7.052933187540e+004 7.052933189555e+004 7.052933188399e+004 7.052933188999e+004 7.052933188488e+004 7.052933188219e+004 7.052933189539e+004 7.052933187727e+004 4.520105394972e+004 4.520105402589e+004 4.520105395633e+004 4.520105399772e+004 4.520105397591e+004 4.520105398860e+004 4.520105400060e+004 4.520105395483e+004 4.520105401996e+004 6.405244701957e+003 6.405244469375e+003 6.405244672466e+003 6.405244537302e+003 6.405244611361e+003 6.405244575300e+003 6.405244535348e+003 6.405244670133e+003 6.405244481874e+003 -4.183908861709e+004 -4.183908581076e+004 -4.183908523423e+004 -4.183908680939e+004 -4.183908578798e+004 -4.183908487635e+004 -4.183908550610e+004 -4.183908497526e+004 -4.183908645339e+004 -9.003677231818e+004 -9.003676931353e+004 -9.003676789601e+004 -9.003676926083e+004 -9.003676935277e+004 -9.003676960336e+004 -9.003676939993e+004 -9.003676989335e+004 -9.003676781711e+004 -1.381915865115e+005 -1.381915854710e+005 -1.381915841690e+005 -1.381915850333e+005 -1.381915855924e+005 -1.381915853891e+005 -1.381915855423e+005 -1.381915842920e+005 -1.381915842829e+005 -1.863064321967e+005 -1.863064302716e+005 -1.863064290901e+005 -1.863064294343e+005 -1.863064289493e+005 -1.863064274514e+005 -1.863064292021e+005 -1.863064286323e+005 -1.863064281006e+005 -2.343835101757e+005 -2.343835073132e+005 -2.343835066268e+005 -2.343835047836e+005 -2.343835048716e+005 -2.343835045958e+005 -2.343835048523e+005 -2.343835035245e+005 -2.343835028007e+005 -2.824251396772e+005 -2.824251387430e+005 -2.824251377086e+005 -2.824251363376e+005 -2.824251357322e+005 -2.824251348417e+005 -2.824251349439e+005 -2.824251335479e+005 -2.824251340695e+005 -3.304332379580e+005 -3.304332378071e+005 -3.304332356364e+005 -3.304332369294e+005 -3.304332346242e+005 -3.304332341885e+005 -3.304332339054e+005 -3.304332327608e+005 -3.304332316657e+005 -3.784097390781e+005 -3.784097380870e+005 -3.784097390205e+005 -3.784097367414e+005 -3.784097364144e+005 -3.784097352585e+005 -3.784097350287e+005 -3.784097348326e+005 -3.784097337584e+005 -4.263563745517e+005 -4.263563761297e+005 -4.263563754917e+005 -4.263563753107e+005 -4.263563738771e+005 -4.263563734449e+005 -4.263563725870e+005 -4.263563711910e+005 -4.263563705157e+005 -4.742748257549e+005 -4.742748276344e+005 -4.742748283642e+005 -4.742748268982e+005 -4.742748252864e+005 -4.742748253875e+005 -4.742748238144e+005 -4.742748224640e+005 -4.742748223069e+005 -5.221667449532e+005 -5.221667472894e+005 -5.221667471422e+005 -5.221667471073e+005 -5.221667461346e+005 -5.221667443589e+005 -5.221667431683e+005 -5.221667428721e+005 -5.221667421957e+005 -5.700337732968e+005 -5.700337713547e+005 -5.700337722166e+005 -5.700337721500e+005 -5.700337718347e+005 -5.700337692737e+005 -5.700337682500e+005 -5.700337690485e+005 -5.700337687180e+005 -6.178775444596e+005 -6.178775438933e+005 -6.178775436560e+005 -6.178775435589e+005 -6.178775425895e+005 -6.178775403525e+005 -6.178775409968e+005 -6.178775403654e+005 -6.178775406962e+005 -6.656997303378e+005 -6.656997295599e+005 -6.656997295112e+005 -6.656997280815e+005 -6.656997279291e+005 -6.656997268845e+005 -6.656997266060e+005 -6.656997260154e+005 -6.656997267239e+005 -7.135020419248e+005 -7.135020410239e+005 -7.135020413942e+005 -7.135020410264e+005 -7.135020398911e+005 -7.135020397718e+005 -7.135020391514e+005 -7.135020390816e+005 -7.135020378879e+005 -7.612862414182e+005 -7.612862420889e+005 -7.612862428641e+005 -7.612862424032e+005 -7.612862416668e+005 -7.612862419671e+005 -7.612862413174e+005 -7.612862413513e+005 -7.612862410780e+005 -8.090541409819e+005 -8.090541417524e+005 -8.090541422958e+005 -8.090541417109e+005 -8.090541416653e+005 -8.090541418874e+005 -8.090541410716e+005 -8.090541416026e+005 -8.090541416726e+005 -8.568075859821e+005 -8.568075860961e+005 -8.568075864394e+005 -8.568075865648e+005 -8.568075854219e+005 -8.568075852615e+005 -8.568075855658e+005 -8.568075858313e+005 -8.568075856739e+005 -9.045484471571e+005 -9.045484479792e+005 -9.045484486109e+005 -9.045484485381e+005 -9.045484482338e+005 -9.045484475554e+005 -9.045484475553e+005 -9.045484477253e+005 -9.045484478376e+005 -9.522786189133e+005 -9.522786193451e+005 -9.522786195967e+005 -9.522786194466e+005 -9.522786195399e+005 -9.522786190810e+005 -9.522786190804e+005 -9.522786192443e+005 -9.522786190863e+005 -1.000000000000e+006 -1.000000000000e+006 -1.000000000000e+006 -1.000000000000e+006 -1.000000000000e+006 -1.000000000000e+006 -1.000000000000e+006 -1.000000000000e+006 -1.000000000000e+006 
        </DataArray>
        <DataArray type="Float64" Name="NONWET_PRESSURE" format="ascii">