<?xml version="1.0"?>
<VTKFile type="UnstructuredGrid" version="0.1" byte_order="LittleEndian">
  <UnstructuredGrid>
    <Piece NumberOfPoints="909" NumberOfCells="800">
      <Points>
        <DataArray type="Float64" NumberOfComponents="3" format="ascii">
          0.000000000000e+000 0.000000000000e+000 0.000000000000e+000
          2.000000000000e+000 0.000000000000e+000 0.000000000000e+000
          2.000000000000e+000 2.500000000000e+000 0.000000000000e+000
          0.000000000000e+000 2.500000000000e+000 0.000000000000e+000
          2.000000000000e+000 5.000000000000e+000 0.000000000000e+000
          0.000000000000e+000 5.000000000000e+000 0.000000000000e+000
          2.000000000000e+000 7.500000000000e+000 0.000000000000e+000
          0.000000000000e+000 7.500000000000e+000 0.000000000000e+000
          2.000000000000e+000 1.000000000000e+001 0.000000000000e+000
          0.000000000000e+000 1.000000000000e+001 0.000000000000e+000
          2.000000000000e+000 1.250000000000e+001 0.000000000000e+000
          0.000000000000e+000 1.250000000000e+001 0.000000000000e+000
          2.000000000000e+000 1.500000000000e+001 0.000000000000e+000
          0.000000000000e+000 1.500000000000e+001 0.000000000000e+000
          2.000000000000e+000 1.750000000000e+001 0.000000000000e+000
          0.000000000000e+000 1.750000000000e+001 0.000000000000e+000
          2.000000000000e+000 2.000000000000e+001 0.000000000000e+000
          0.000000000000e+000 2.000000000000e+001 0.000000000000e+000
          4.000000000000e+000 0.000000000000e+000 0.000000000000e+000
          4.000000000000e+000 2.500000000000e+000 0.000000000000e+000
          4.000000000000e+000 5.000000000000e+000 0.000000000000e+000
          4.000000000000e+000 7.500000000000e+000 0.000000000000e+000
          4.000000000000e+000 1.000000000000e+001 0.000000000000e+000
          4.000000000000e+000 1.250000000000e+001 0.000000000000e+000
          4.000000000000e+000 1.500000000000e+001 0.000000000000e+000
          4.000000000000e+000 1.750000000000e+001 0.000000000000e+000
          4.000000000000e+000 2.000000000000e+001 0.000000000000e+000
          6.000000000000e+000 0.000000000000e+000 0.000000000000e+000
          6.000000000000e+000 2.500000000000e+000 0.000000000000e+000
          6.000000000000e+000 5.000000000000e+000 0.000000000000e+000
          6.000000000000e+000 7.500000000000e+000 0.000000000000e+000
          6.000000000000e+000 1.000000000000e+001 0.000000000000e+000
          6.000000000000e+000 1.250000000000e+001 0.000000000000e+000
          6.000000000000e+000 1.500000000000e+001 0.000000000000e+000
          6.000000000000e+000 1.750000000000e+001 0.000000000000e+000
          6.000000000000e+000 2.000000000000e+001 0.000000000000e+000
          8.000000000000e+000 0.000000000000e+000 0.000000000000e+000
          8.000000000000e+000 2.500000000000e+000 0.000000000000e+000
          8.000000000000e+000 5.000000000000e+000 0.000000000000e+000
          8.000000000000e+000 7.500000000000e+000 0.000000000000e+000
          8.000000000000e+000 1.000000000000e+001 0.000000000000e+000
          8.000000000000e+000 1.250000000000e+001 0.000000000000e+000
          8.000000000000e+000 1.500000000000e+001 0.000000000000e+000
          8.000000000000e+000 1.750000000000e+001 0.000000000000e+000
          8.000000000000e+000 2.000000000000e+001 0.000000000000e+000
          1.000000000000e+001 0.000000000000e+000 0.000000000000e+000
          1.000000000000e+001 2.500000000000e+000 0.000000000000e+000
          1.000000000000e+001 5.000000000000e+000 0.000000000000e+000
          1.000000000000e+001 7.500000000000e+000 0.000000000000e+000
          1.000000000000e+001 1.000000000000e+001 0.000000000000e+000
          1.000000000000e+001 1.250000000000e+001 0.000000000000e+000
          1.000000000000e+001 1.500000000000e+001 0.000000000000e+000
          1.000000000000e+001 1.750000000000e+001 0.000000000000e+000
          1.000000000000e+001 2.000000000000e+001 0.000000000000e+000
          1.200000000000e+001 0.000000000000e+000 0.000000000000e+000
          1.200000000000e+001 2.500000000000e+000 0.000000000000e+000
          1.200000000000e+001 5.000000000000e+000 0.000000000000e+000
          1.200000000000e+001 7.500000000000e+000 0.000000000000e+000
          1.200000000000e+001 1.000000000000e+001 0.000000000000e+000
          1.200000000000e+001 1.250000000000e+001 0.000000000000e+000
          1.200000000000e+001 1.500000000000e+001 0.000000000000e+000
          1.200000000000e+001 1.750000000000e+001 0.000000000000e+000
          1.200000000000e+001 2.000000000000e+001 0.000000000000e+000
          1.400000000000e+001 0.000000000000e+000 0.000000000000e+000
          1.400000000000e+001 2.500000000000e+000 0.000000000000e+000
          1.400000000000e+001 5.000000000000e+000 0.000000000000e+000
          1.400000000000e+001 7.500000000000e+000 0.000000000000e+000
          1.400000000000e+001 1.000000000000e+001 0.000000000000e+000
          1.400000000000e+001 1.250000000000e+001 0.000000000000e+000
          1.400000000000e+001 1.500000000000e+001 0.000000000000e+000
          1.400000000000e+001 1.750000000000e+001 0.000000000000e+000
          1.400000000000e+001 2.000000000000e+001 0.000000000000e+000
          1.600000000000e+001 0.000000000000e+000 0.000000000000e+000
          1.600000000000e+001 2.500000000000e+000 0.000000000000e+000
          1.600000000000e+001 5.000000000000e+000 0.000000000000e+000
          1.600000000000e+001 7.500000000000e+000 0.000000000000e+000
          1.600000000000e+001 1.000000000000e+001 0.000000000000e+000
          1.600000000000e+001 1.250000000000e+001 0.000000000000e+000
          1.600000000000e+001 1.500000000000e+001 0.000000000000e+000
          1.600000000000e+001 1.750000000000e+001 0.000000000000e+000
          1.600000000000e+001 2.000000000000e+001 0.000000000000e+000
          1.800000000000e+001 0.000000000000e+000 0.000000000000e+000
          1.800000000000e+001 2.500000000000e+000 0.000000000000e+000
          1.800000000000e+001 5.000000000000e+000 0.000000000000e+000
          1.800000000000e+001 7.500000000000e+000 0.000000000000e+000
          1.800000000000e+001 1.000000000000e+001 0.000000000000e+000
          1.800000000000e+001 1.250000000000e+001 0.000000000000e+000
          1.800000000000e+001 1.500000000000e+001 0.000000000000e+000
          1.800000000000e+001 1.750000000000e+001 0.000000000000e+000
          1.800000000000e+001 2.000000000000e+001 0.000000000000e+000
          2.000000000000e+001 0.000000000000e+000 0.000000000000e+000
          2.000000000000e+001 2.500000000000e+000 0.000000000000e+000
          2.000000000000e+001 5.000000000000e+000 0.000000000000e+000
          2.000000000000e+001 7.500000000000e+000 0.000000000000e+000
          2.000000000000e+001 1.000000000000e+001 0.000000000000e+000
          2.000000000000e+001 1.250000000000e+001 0.000000000000e+000
          2.000000000000e+001 1.500000000000e+001 0.000000000000e+000
          2.000000000000e+001 1.750000000000e+001 0.000000000000e+000
          2.000000000000e+001 2.000000000000e+001 0.000000000000e+000
          2.200000000000e+001 0.000000000000e+000 0.000000000000e+000
          2.200000000000e+001 2.500000000000e+000 0.000000000000e+000
          2.200000000000e+001 5.000000000000e+000 0.000000000000e+000
          2.200000000000e+001 7.500000000000e+000 0.000000000000e+000
          2.200000000000e+001 1.000000000000e+001 0.000000000000e+000
          2.200000000000e+001 1.250000000000e+001 0.000000000000e+000
          2.200000000000e+001 1.500000000000e+001 0.000000000000e+000
          2.200000000000e+001 1.750000000000e+001 0.000000000000e+000
          2.200000000000e+001 2.000000000000e+001 0.000000000000e+000
          2.400000000000e+001 0.000000000000e+000 0.000000000000e+000
          2.400000000000e+001 2.500000000000e+000 0.000000000000e+000
          2.400000000000e+001 5.000000000000e+000 0.000000000000e+000
          2.400000000000e+001 7.500000000000e+000 0.000000000000e+000
          2.400000000000e+001 1.000000000000e+001 0.000000000000e+000
          2.400000000000e+001 1.250000000000e+001 0.000000000000e+000
          2.400000000000e+001 1.500000000000e+001 0.000000000000e+000
          2.400000000000e+001 1.750000000000e+001 0.000000000000e+000
          2.400000000000e+001 2.000000000000e+001 0.000000000000e+000
          2.600000000000e+001 0.000000000000e+000 0.000000000000e+000
          2.600000000000e+001 2.500000000000e+000 0.000000000000e+000
          2.600000000000e+001 5.000000000000e+000 0.000000000000e+000
          2.600000000000e+001 7.500000000000e+000 0.000000000000e+000
          2.600000000000e+001 1.000000000000e+001 0.000000000000e+000
          2.600000000000e+001 1.250000000000e+001 0.000000000000e+000
          2.600000000000e+001 1.500000000000e+001 0.000000000000e+000
          2.600000000000e+001 1.750000000000e+001 0.000000000000e+000
          2.600000000000e+001 2.000000000000e+001 0.000000000000e+000
          2.800000000000e+001 0.000000000000e+000 0.000000000000e+000
          2.800000000000e+001 2.500000000000e+000 0.000000000000e+000
          2.800000000000e+001 5.000000000000e+000 0.000000000000e+000
          2.800000000000e+001 7.500000000000e+000 0.000000000000e+000
          2.800000000000e+001 1.000000000000e+001 0.000000000000e+000
          2.800000000000e+001 1.250000000000e+001 0.000000000000e+000
          2.800000000000e+001 1.500000000000e+001 0.000000000000e+000
          2.800000000000e+001 1.750000000000e+001 0.000000000000e+000
          2.800000000000e+001 2.000000000000e+001 0.000000000000e+000
          3.000000000000e+001 0.000000000000e+000 0.000000000000e+000
          3.000000000000e+001 2.500000000000e+000 0.000000000000e+000
          3.000000000000e+001 5.000000000000e+000 0.000000000000e+000
          3.000000000000e+001 7.500000000000e+000 0.000000000000e+000
[...]
      <PointData Scalars="CAPILLARY_PRESSURE">
        <DataArray type="Float64" Name="CAPILLARY_PRESSURE" format="ascii">
          2.891854004883e+005 2.864476229038e+005 2.864476229038e+005 2.891854004883e+005 2.864476229038e+005 2.891854004883e+005 2.864476229038e+005 2.891854004883e+005 2.864476229038e+005 2.891854004883e+005 2.864476229038e+005 2.891854004883e+005 2.864476229038e+005 2.891854004883e+005 2.864476229038e+005 2.891854004883e+005 2.864476229038e+005 2.891854004883e+005 2.837154779292e+005 2.837154779292e+005 2.837154779292e+005 2.837154779292e+005 2.837154779292e+005 2.837154779292e+005 2.837154779292e+005 2.837154779292e+005 2.837154779292e+005 2.809879845749e+005 2.809879845749e+005 2.809879845749e+005 2.809879845749e+005 2.809879845749e+005 2.809879845749e+005 2.809879845749e+005 2.809879845749e+005 2.809879845749e+005 2.782641790583e+005 2.782641790583e+005 2.782641790583e+005 2.782641790583e+005 2.782641790583e+005 2.782641790583e+005 2.782641790583e+005 2.782641790583e+005 2.782641790583e+005 2.755431833237e+005 2.755431833237e+005 2.755431833237e+005 2.755431833237e+005 2.755431833237e+005 2.755431833237e+005 2.755431833237e+005 2.755431833237e+005 2.755431833237e+005 2.728241622362e+005 2.728241622362e+005 2.728241622362e+005 2.728241622362e+005 2.728241622362e+005 2.728241622362e+005 2.728241622362e+005 2.728241622362e+005 2.728241622362e+005 2.701062518726e+005 2.701062518726e+005 2.701062518726e+005 2.701062518726e+005 2.701062518726e+005 2.701062518726e+005 2.701062518726e+005 2.701062518726e+005 2.701062518726e+005 2.673885418914e+005 2.673885418914e+005 2.673885418914e+005 2.673885418914e+005 2.673885418914e+005 2.673885418914e+005 2.673885418914e+005 2.673885418914e+005 2.673885418914e+005 2.646700737553e+005 2.646700737553e+005 2.646700737553e+005 2.646700737553e+005 2.646700737553e+005 2.646700737553e+005 2.646700737553e+005 2.646700737553e+005 2.646700737553e+005 2.619498369993e+005 2.619498369993e+005 2.619498369993e+005 2.619498369993e+005 2.619498369993e+005 2.619498369993e+005 2.619498369993e+005 2.619498369993e+005 2.619498369993e+005 2.592267653908e+005 2.592267653908e+005 2.592267653908e+005 2.592267653908e+005 2.592267653908e+005 2.592267653908e+005 2.592267653908e+005 2.592267653908e+005 2.592267653908e+005 2.564997326598e+005 2.564997326598e+005 2.564997326598e+005 2.564997326598e+005 2.564997326598e+005 2.564997326598e+005 2.564997326598e+005 2.564997326598e+005 2.564997326598e+005 2.537675476274e+005 2.537675476274e+005 2.537675476274e+005 2.537675476274e+005 2.537675476274e+005 2.537675476274e+005 2.537675476274e+005 2.537675476274e+005 2.537675476274e+005 2.510289488762e+005 2.510289488762e+005 2.510289488762e+005 2.510289488762e+005 2.510289488762e+005 2.510289488762e+005 2.510289488762e+005 2.510289488762e+005 2.510289488762e+005 2.482825989162e+005 2.482825989162e+005 2.482825989162e+005 2.482825989162e+005 2.482825989162e+005 2.482825989162e+005 2.482825989162e+005 2.482825989162e+005 2.482825989162e+005 2.455270777497e+005 2.455270777497e+005 2.455270777497e+005 2.455270777497e+005 2.455270777497e+005 2.455270777497e+005 2.455270777497e+005 2.455270777497e+005 2.455270777497e+005 2.427608757219e+005 2.427608757219e+005 2.427608757219e+005 2.427608757219e+005 2.427608757219e+005 2.427608757219e+005 2.427608757219e+005 2.427608757219e+005 2.427608757219e+005 2.399823855357e+005 2.399823855357e+005 2.399823855357e+005 2.399823855357e+005 2.399823855357e+005 2.399823855357e+005 2.399823855357e+005 2.399823855357e+005 2.399823855357e+005 2.371898932985e+005 2.371898932985e+005 2.371898932985e+005 2.371898932985e+005 2.371898932985e+005 2.371898932985e+005 2.371898932985e+005 2.371898932985e+005 2.371898932985e+005 2.343815684574e+005 2.343815684574e+005 2.343815684574e+005 2.343815684574e+005 2.343815684574e+005 2.343815684574e+005 2.343815684574e+005 2.343815684574e+005 2.343815684574e+005 2.315554524493e+005 2.315554524493e+005 2.315554524493e+005 2.315554524493e+005 2.315554524493e+005 2.315554524493e+005 2.315554524493e+005 2.315554524493e+005 2.315554524493e+005 2.287094458700e+005 2.287094458700e+005 2.287094458700e+005 2.287094458700e+005 2.287094458700e+005 2.287094458700e+005 2.287094458700e+005 2.287094458700e+005 2.287094458700e+005 2.258412939258e+005 2.258412939258e+005 2.258412939258e+005 2.258412939258e+005 2.258412939258e+005 2.258412939258e+005 2.258412939258e+005 2.258412939258e+005 2.258412939258e+005 2.229485698895e+005 2.229485698895e+005 2.229485698895e+005 2.229485698895e+005 2.229485698895e+005 2.229485698895e+005 2.229485698895e+005 2.229485698895e+005 2.229485698895e+005 2.200286562303e+005 2.200286562303e+005 2.200286562303e+005 2.200286562303e+005 2.200286562303e+005 2.200286562303e+005 2.200286562303e+005 2.200286562303e+005 2.200286562303e+005 2.170787230185e+005 2.170787230185e+005 2.170787230185e+005 2.170787230185e+005 2.170787230185e+005 2.170787230185e+005 2.170787230185e+005 2.170787230185e+005 2.170787230185e+005 2.140957031263e+005 2.140957031263e+005 2.140957031263e+005 2.140957031263e+005 2.140957031263e+005 2.140957031263e+005 2.140957031263e+005 2.140957031263e+005 2.140957031263e+005 2.110762636426e+005 2.110762636426e+005 2.110762636426e+005 2.110762636426e+005 2.110762636426e+005 2.110762636426e+005 2.110762636426e+005 2.110762636426e+005 2.110762636426e+005 2.080167727932e+005 2.080167727932e+005 2.080167727932e+005 2.080167727932e+005 2.080167727932e+005 2.080167727932e+005 2.080167727932e+005 2.080167727932e+005 2.080167727932e+005 2.049132614963e+005 2.049132614963e+005 2.049132614963e+005 2.049132614963e+005 2.049132614963e+005 2.049132614963e+005 2.049132614963e+005 2.049132614963e+005 2.049132614963e+005 2.017613784801e+005 2.017613784801e+005 2.017613784801e+005 2.017613784801e+005 2.017613784801e+005 2.017613784801e+005 2.017613784801e+005 2.017613784801e+005 2.017613784801e+005 1.985563376322e+005 1.985563376322e+005 1.985563376322e+005 1.985563376322e+005 1.985563376322e+005 1.985563376322e+005 1.985563376322e+005 1.985563376322e+005 1.985563376322e+005 1.952928559148e+005 1.952928559148e+005 1.952928559148e+005 1.952928559148e+005 1.952928559148e+005 1.952928559148e+005 1.952928559148e+005 1.952928559148e+005 1.952928559148e+005 1.919650797492e+005 1.919650797492e+005 1.919650797492e+005 1.919650797492e+005 1.919650797492e+005 1.919650797492e+005 1.919650797492e+005 1.919650797492e+005 1.919650797492e+005 1.885664972059e+005 1.885664972059e+005 1.885664972059e+005 1.885664972059e+005 1.885664972059e+005 1.885664972059e+005 1.885664972059e+005 1.885664972059e+005 1.885664972059e+005 1.850898325786e+005 1.850898325786e+005 1.850898325786e+005 1.850898325786e+005 1.850898325786e+005 1.850898325786e+005 1.850898325786e+005 1.850898325786e+005 1.850898325786e+005 1.815269189068e+005 1.815269189068e+005 1.815269189068e+005 1.815269189068e+005 1.815269189068e+005 1.815269189068e+005 1.815269189068e+005 1.815269189068e+005 1.815269189068e+005 1.778685426140e+005 1.778685426140e+005 1.778685426140e+005 1.778685426140e+005 1.778685426140e+005 1.778685426140e+005 1.778685426140e+005 1.778685426140e+005 1.778685426140e+005 1.741042525101e+005 1.741042525101e+005 1.741042525101e+005 1.741042525101e+005 1.741042525101e+005 1.741042525101e+005 1.741042525101e+005 1.741042525101e+005 1.741042525101e+005 1.702221227007e+005 1.702221227007e+005 1.702221227007e+005 1.702221227007e+005 1.702221227007e+005 1.702221227007e+005 1.702221227007e+005 1.702221227007e+005 1.702221227007e+005 1.662084551294e+005 1.662084551294e+005 1.662084551294e+005 1.662084551294e+005 1.662084551294e+005 1.662084551294e+005 1.662084551293e+005 1.662084551293e+005 1.662084551293e+005 1.620474019845e+005 1.620474019845e+005 1.620474019845e+005 1.620474019845e+005 1.620474019845e+005 1.620474019845e+005 1.620474019845e+005 1.620474019845e+005 1.620474019845e+005 1.577204803207e+005 1.577204803207e+005 1.577204803207e+005 1.577204803207e+005 1.577204803207e+005 1.577204803207e+005 1.577204803207e+005 1.577204803207e+005 1.577204803207e+005 1.532059395025e+005 1.532059395025e+005 1.532059395025e+005 1.532059395025e+005 1.532059395025e+005 1.532059395025e+005 1.532059395025e+005 1.532059395024e+005 1.532059395024e+005 1.484779245649e+005 1.484779245649e+005 1.484779245649e+005 1.484779245649e+005 1.484779245649e+005 1.484779245649e+005 1.484779245649e+005 1.484779245649e+005 1.484779245649e+005 1.435053516975e+005 1.435053516975e+005 1.435053516975e+005 1.435053516975e+005 1.435053516975e+005 1.435053516975e+005 1.435053516975e+005 1.435053516975e+005 1.435053516975e+005 1.382503687311e+005 1.382503687311e+005 1.382503687311e+005 1.382503687311e+005 1.382503687311e+005 1.382503687311e+005 1.382503687311e+005 1.382503687311e+005 1.382503687311e+005 1.326661990775e+005 1.326661990775e+005 1.326661990775e+005 1.326661990775e+005 1.326661990775e+005 1.326661990775e+005 1.326661990775e+005 1.326661990775e+005 1.326661990775e+005 1.266940411200e+005 1.266940411201e+005 1.266940411200e+005 1.266940411200e+005 1.266940411200e+005 1.266940411200e+005 1.266940411200e+005 1.266940411200e+005 1.266940411200e+005 1.202584579912e+005 1.202584579910e+005 1.202584579911e+005 1.202584579911e+005 1.202584579911e+005 1.202584579910e+005 1.202584579910e+005 1.202584579910e+005 1.202584579910e+005 1.132603235216e+005 1.132603235221e+005 1.132603235215e+005 1.132603235213e+005 1.132603235212e+005 1.132603235215e+005 1.132603235211e+005 1.132603235210e+005 1.132603235208e+005 1.055656631593e+005 1.055656631583e+005 1.055656631592e+005 1.055656631593e+005 1.055656631594e+005 1.055656631584e+005 1.055656631593e+005 1.055656631591e+005 1.055656631597e+005 9.698696454810e+004 9.698696454975e+004 9.698696454952e+004 9.698696455066e+004 9.698696454992e+004 9.698696455112e+004 9.698696454954e+004 9.698696455157e+004 9.698696455004e+004 8.725042665223e+004 8.725042665303e+004 8.725042665390e+004 8.725042664913e+004 8.725042665210e+004 8.725042665102e+004 8.725042665135e+004 8.725042664659e+004 8.725042664944e+004 7.593371077978e+004 7.593371077035e+004 7.593371076521e+004 7.593371077656e+004 7.593371076643e+004 7.593371076836e+004 7.593371077468e+004 7.593371077288e+004 7.593371077470e+004 6.233281641264e+004 6.233281643782e+004 6.233281645001e+004 6.233281641954e+004 6.233281645230e+004 6.233281644649e+004 6.233281641305e+004 6.233281644834e+004 6.233281640826e+004 4.517377157386e+004 4.517377151571e+004 4.517377143710e+004 4.517377147702e+004 4.517377137299e+004 4.517377145197e+004 4.517377153399e+004 4.517377139436e+004 4.517377150913e+004 2.214839448783e+004 2.214839461688e+004 2.214839494467e+004 2.214839487409e+004 2.214839529717e+004 2.214839483587e+004 2.214839477021e+004 2.214839503376e+004 2.214839502191e+004 -8.053022979561e+003 -8.053024384452e+003 -8.053026122807e+003 -8.053026445814e+003 -8.053028881501e+003 -8.053025661374e+003 -8.053025379969e+003 -8.053026505985e+003 -8.053027971866e+003 -3.943892517998e+004 -3.943892598016e+004 -3.943892998251e+004 -3.943893046726e+004 -3.943892963108e+004 -3.943892642788e+004 -3.943892821591e+004 -3.943892961122e+004 -3.943893074775e+004 -7.033232352851e+004 -7.033232698087e+004 -7.033232737852e+004 -7.033232704807e+004 -7.033232437670e+004 -7.033232553225e+004 -7.033232775694e+004 -7.033232523170e+004 -7.033232613084e+004 -1.007245636191e+005 -1.007245640012e+005 -1.007245640168e+005 -1.007245637040e+005 -1.007245630205e+005 -1.007245615024e+005 -1.007245641895e+005 -1.007245626439e+005 -1.007245623802e+005 -1.306084456149e+005 -1.306084426307e+005 -1.306084444077e+005 -1.306084435497e+005 -1.306084408910e+005 -1.306084422983e+005 -1.306084440407e+005 -1.306084435142e+005 -1.306084433911e+005 -1.599872770279e+005 -1.599872783654e+005 -1.599872784986e+005 -1.599872792994e+005 -1.599872758405e+005 -1.599872759446e+005 -1.599872793132e+005 -1.599872787631e+005 -1.599872772635e+005 -1.888728840571e+005 -1.888728851506e+005 -1.888728845024e+005 -1.888728833237e+005 -1.888728818499e+005 -1.888728828954e+005 -1.888728858277e+005 -1.888728854869e+005 -1.888728830157e+005 -2.172799905709e+005 -2.172799915586e+005 -2.172799913891e+005 -2.172799920303e+005 -2.172799891700e+005 -2.172799906436e+005 -2.172799928003e+005 -2.172799918426e+005 -2.172799901847e+005 -2.452235989336e+005 -2.452235999381e+005 -2.452236012569e+005 -2.452235986543e+005 -2.452235989250e+005 -2.452236000683e+005 -2.452236004248e+005 -2.452236014414e+005 -2.452235980339e+005 -2.727185931996e+005 -2.727185941036e+005 -2.727185936863e+005 -2.727185917326e+005 -2.727185937796e+005 -2.727185933543e+005 -2.727185925167e+005 -2.727185927949e+005 -2.727185921891e+005 -2.997797363160e+005 -2.997797355495e+005 -2.997797351326e+005 -2.997797347851e+005 -2.997797319156e+005 -2.997797320550e+005 -2.997797345888e+005 -2.997797332767e+005 -2.997797330489e+005 -3.264216614130e+005 -3.264216589341e+005 -3.264216587129e+005 -3.264216569205e+005 -3.264216552259e+005 -3.264216556172e+005 -3.264216580441e+005 -3.264216568411e+005 -3.264216578029e+005 -3.526588937601e+005 -3.526588930044e+005 -3.526588929987e+005 -3.526588921798e+005 -3.526588914146e+005 -3.526588913297e+005 -3.526588925575e+005 -3.526588929436e+005 -3.526588926982e+005 -3.785058626790e+005 -3.785058648675e+005 -3.785058653726e+005 -3.785058660914e+005 -3.785058646817e+005 -3.785058654488e+005 -3.785058667547e+005 -3.785058654671e+005 -3.785058646789e+005 -4.039769038343e+005 -4.039769017352e+005 -4.039769043122e+005 -4.039769044673e+005 -4.039769031801e+005 -4.039769055415e+005 -4.039769041353e+005 -4.039769043696e+005 -4.039769038313e+005 -4.290862411561e+005 -4.290862397936e+005 -4.290862396203e+005 -4.290862393724e+005 -4.290862390127e+005 -4.290862408581e+005 -4.290862405198e+005 -4.290862410380e+005 -4.290862391325e+005 -4.538480117321e+005 -4.538480150614e+005 -4.538480155162e+005 -4.538480153079e+005 -4.538480146864e+005 -4.538480162950e+005 -4.538480159892e+005 -4.538480161490e+005 -4.538480167417e+005 -4.782762846705e+005 -4.782762880910e+005 -4.782762871668e+005 -4.782762872008e+005 -4.782762901855e+005 -4.782762882469e+005 -4.782762896084e+005 -4.782762896388e+005 -4.782762899316e+005 -5.023850352467e+005 -5.023850367905e+005 -5.023850372266e+005 -5.023850361822e+005 -5.023850375391e+005 -5.023850379793e+005 -5.023850391241e+005 -5.023850376735e+005 -5.023850379093e+005 -5.261881665684e+005 -5.261881654370e+005 -5.261881656309e+005 -5.261881669365e+005 -5.261881655677e+005 -5.261881663927e+005 -5.261881664987e+005 -5.261881660550e+005 -5.261881656241e+005 -5.496995086052e+005 -5.496995097644e+005 -5.496995081743e+005 -5.496995087830e+005 -5.496995086035e+005 -5.496995093663e+005 -5.496995094487e+005 -5.496995083668e+005 -5.496995095979e+005 -5.729328370761e+005 -5.729328341500e+005 -5.729328334825e+005 -5.729328349572e+005 -5.729328340780e+005 -5.729328333253e+005 -5.729328339409e+005 -5.729328334046e+005 -5.729328347879e+005 -5.959018530891e+005 -5.959018500655e+005 -5.959018485886e+005 -5.959018499407e+005 -5.959018500790e+005 -5.959018503939e+005 -5.959018502171e+005 -5.959018506962e+005 -5.959018486188e+005 -6.186202091647e+005 -6.186202081131e+005 -6.186202067940e+005 -6.186202076552e+005 -6.186202082358e+005 -6.186202080629e+005 -6.186202082348e+005 -6.186202069894e+005 -6.186202069788e+005 -6.411015075480e+005 -6.411015056200e+005 -6.411015044334e+005 -6.411015047794e+005 -6.411015043059e+005 -6.411015028244e+005 -6.411015045883e+005 -6.411015040240e+005 -6.411015034942e+005 -6.633592928913e+005 -6.633592900277e+005 -6.633592893408e+005 -6.633592875004e+005 -6.633592875959e+005 -6.633592873305e+005 -6.633592875949e+005 -6.633592862723e+005 -6.633592855508e+005 -6.854070640654e+005 -6.854070631311e+005 -6.854070620982e+005 -6.854070607291e+005 -6.854070601295e+005 -6.854070592456e+005 -6.854070593531e+005 -6.854070579608e+005 -6.854070584836e+005 -7.072582843413e+005 -7.072582841904e+005 -7.072582820208e+005 -7.072582833167e+005 -7.072582810153e+005 -7.072582805839e+005 -7.072582803042e+005 -7.072582791624e+005 -7.072582780680e+005 -7.289263741130e+005 -7.289263731219e+005 -7.289263740565e+005 -7.289263717796e+005 -7.289263714551e+005 -7.289263703026e+005 -7.289263700752e+005 -7.289263698809e+005 -7.289263688073e+005 -7.504247163193e+005 -7.504247178974e+005 -7.504247172605e+005 -7.504247170810e+005 -7.504247156494e+005 -7.504247152195e+005 -7.504247143635e+005 -7.504247129687e+005 -7.504247122939e+005 -7.717666669824e+005 -7.717666688621e+005 -7.717666695927e+005 -7.717666681279e+005 -7.717666665176e+005 -7.717666666203e+005 -7.717666650489e+005 -7.717666636993e+005 -7.717666635425e+005 -7.929655462207e+005 -7.929655485573e+005 -7.929655484107e+005 -7.929655483768e+005 -7.929655474051e+005 -7.929655456308e+005 -7.929655444407e+005 -7.929655441455e+005 -7.929655434696e+005 -8.140346528769e+005 -8.140346509351e+005 -8.140346517973e+005 -8.140346517319e+005 -8.140346514172e+005 -8.140346488572e+005 -8.140346478342e+005 -8.140346486332e+005 -8.140346483029e+005 -8.349872506676e+005 -8.349872501013e+005 -8.349872498646e+005 -8.349872497682e+005 -8.349872487994e+005 -8.349872465628e+005 -8.349872472079e+005 -8.349872465766e+005 -8.349872469077e+005 -8.558365915986e+005 -8.558365908211e+005 -8.558365907728e+005 -8.558365893434e+005 -8.558365891916e+005 -8.558365881474e+005 -8.558365878693e+005 -8.558365872791e+005 -8.558365879876e+005 -8.765959021507e+005 -8.765959012499e+005 -8.765959016206e+005 -8.765959012533e+005 -8.765959001183e+005 -8.765958999993e+005 -8.765958993791e+005 -8.765958993094e+005 -8.765958981160e+005 -8.972783924975e+005 -8.972783931683e+005 -8.972783939437e+005 -8.972783934831e+005 -8.972783927469e+005 -8.972783930474e+005 -8.972783923980e+005 -8.972783924321e+005 -8.972783921589e+005 -9.178972614296e+005 -9.178972622004e+005 -9.178972627438e+005 -9.178972621591e+005 -9.178972621136e+005 -9.178972623357e+005 -9.178972615200e+005 -9.178972620514e+005 -9.178972621214e+005 -9.384656905121e+005 -9.384656906260e+005 -9.384656909696e+005 -9.384656910952e+005 -9.384656899521e+005 -9.384656897918e+005 -9.384656900961e+005 -9.384656903618e+005 -9.384656902044e+005 -9.589968483863e+005 -9.589968492086e+005 -9.589968498405e+005 -9.589968497678e+005 -9.589968494632e+005 -9.589968487848e+005 -9.589968487847e+005 -9.589968489549e+005 -9.589968490671e+005 -9.795039005012e+005 -9.795039009332e+005 -9.795039011850e+005 -9.795039010349e+005 -9.795039011281e+005 -9.795039006690e+005 -9.795039006686e+005 -9.795039008325e+005 -9.795039006746e+005 -1.000000000000e+006 -1.000000000000e+006 -1.000000000000e+006 -1.000000000000e+006 -1.000000000000e+006 -1.000000000000e+006 -1.000000000000e+006 -1.000000000000e+006 -1.000000000000e+006 
        </DataArray>
        <DataArray type="Float64" Name="NONWET_PRESSURE" format="ascii">