<?xml version="1.0"?>
<VTKFile type="UnstructuredGrid" version="0.1" byte_order="LittleEndian">
  <UnstructuredGrid>
    <Piece NumberOfPoints="909" NumberOfCells="800">
      <Points>
        <DataArray type="Float64" NumberOfComponents="3" format="ascii">
          0.000000000000e+000 0.000000000000e+000 0.000000000000e+000
          2.000000000000e+000 0.000000000000e+000 0.000000000000e+000
          2.000000000000e+000 2.500000000000e+000 0.000000000000e+000
          0.000000000000e+000 2.500000000000e+000 0.000000000000e+000
          2.000000000000e+000 5.000000000000e+000 0.000000000000e+000
          0.000000000000e+000 5.000000000000e+000 0.000000000000e+000
          2.000000000000e+000 7.500000000000e+000 0.000000000000e+000
          0.000000000000e+000 7.500000000000e+000 0.000000000000e+000
          2.000000000000e+000 1.000000000000e+001 0.000000000000e+000
          0.000000000000e+000 1.000000000000e+001 0.000000000000e+000
          2.000000000000e+000 1.250000000000e+001 0.000000000000e+000
          0.000000000000e+000 1.250000000000e+001 0.000000000000e+000
          2.000000000000e+000 1.500000000000e+001 0.000000000000e+000
          0.000000000000e+000 1.500000000000e+001 0.000000000000e+000
          2.000000000000e+000 1.750000000000e+001 0.000000000000e+000
          0.000000000000e+000 1.750000000000e+001 0.000000000000e+000
          2.000000000000e+000 2.000000000000e+001 0.000000000000e+000
          0.000000000000e+000 2.000000000000e+001 0.000000000000e+000
          4.000000000000e+000 0.000000000000e+000 0.000000000000e+000
          4.000000000000e+000 2.500000000000e+000 0.000000000000e+000
          4.000000000000e+000 5.000000000000e+000 0.000000000000e+000
          4.000000000000e+000 7.500000000000e+000 0.000000000000e+000
          4.000000000000e+000 1.000000000000e+001 0.000000000000e+000
          4.000000000000e+000 1.250000000000e+001 0.000000000000e+000
          4.000000000000e+000 1.500000000000e+001 0.000000000000e+000
          4.000000000000e+000 1.750000000000e+001 0.000000000000e+000
          4.000000000000e+000 2.000000000000e+001 0.000000000000e+000
          6.000000000000e+000 0.000000000000e+000 0.000000000000e+000
          6.000000000000e+000 2.500000000000e+000 0.000000000000e+000
          6.000000000000e+000 5.000000000000e+000 0.000000000000e+000
          6.000000000000e+000 7.500000000000e+000 0.000000000000e+000
          6.000000000000e+000 1.000000000000e+001 0.000000000000e+000
          6.000000000000e+000 1.250000000000e+001 0.000000000000e+000
          6.000000000000e+000 1.500000000000e+001 0.000000000000e+000
          6.000000000000e+000 1.750000000000e+001 0.000000000000e+000
          6.000000000000e+000 2.000000000000e+001 0.000000000000e+000
          8.000000000000e+000 0.000000000000e+000 0.000000000000e+000
          8.000000000000e+000 2.500000000000e+000 0.000000000000e+000
          8.000000000000e+000 5.000000000000e+000 0.000000000000e+000
          8.000000000000e+000 7.500000000000e+000 0.000000000000e+000
          8.000000000000e+000 1.000000000000e+001 0.000000000000e+000
          8.000000000000e+000 1.250000000000e+001 0.000000000000e+000
          8.000000000000e+000 1.500000000000e+001 0.000000000000e+000
          8.000000000000e+000 1.750000000000e+001 0.000000000000e+000
          8.000000000000e+000 2.000000000000e+001 0.000000000000e+000
          1.000000000000e+001 0.000000000000e+000 0.000000000000e+000
          1.000000000000e+001 2.500000000000e+000 0.000000000000e+000
          1.000000000000e+001 5.000000000000e+000 0.000000000000e+000
          1.000000000000e+001 7.500000000000e+000 0.000000000000e+000
          1.000000000000e+001 1.000000000000e+001 0.000000000000e+000
          1.000000000000e+001 1.250000000000e+001 0.000000000000e+000
          1.000000000000e+001 1.500000000000e+001 0.000000000000e+000
          1.000000000000e+001 1.750000000000e+001 0.000000000000e+000
          1.000000000000e+001 2.000000000000e+001 0.000000000000e+000
          1.200000000000e+001 0.000000000000e+000 0.000000000000e+000
          1.200000000000e+001 2.500000000000e+000 0.000000000000e+000
          1.200000000000e+001 5.000000000000e+000 0.000000000000e+000
          1.200000000000e+001 7.500000000000e+000 0.000000000000e+000
          1.200000000000e+001 1.000000000000e+001 0.000000000000e+000
          1.200000000000e+001 1.250000000000e+001 0.000000000000e+000
          1.200000000000e+001 1.500000000000e+001 0.000000000000e+000
          1.200000000000e+001 1.750000000000e+001 0.000000000000e+000
          1.200000000000e+001 2.000000000000e+001 0.000000000000e+000
          1.400000000000e+001 0.000000000000e+000 0.000000000000e+000
          1.400000000000e+001 2.500000000000e+000 0.000000000000e+000
          1.400000000000e+001 5.000000000000e+000 0.000000000000e+000
          1.400000000000e+001 7.500000000000e+000 0.000000000000e+000
          1.400000000000e+001 1.000000000000e+001 0.000000000000e+000
          1.400000000000e+001 1.250000000000e+001 0.000000000000e+000
          1.400000000000e+001 1.500000000000e+001 0.000000000000e+000
          1.400000000000e+001 1.750000000000e+001 0.000000000000e+000
          1.400000000000e+001 2.000000000000e+001 0.000000000000e+000
          1.600000000000e+001 0.000000000000e+000 0.000000000000e+000
          1.600000000000e+001 2.500000000000e+000 0.000000000000e+000
          1.600000000000e+001 5.000000000000e+000 0.000000000000e+000
          1.600000000000e+001 7.500000000000e+000 0.000000000000e+000
          1.600000000000e+001 1.000000000000e+001 0.000000000000e+000
          1.600000000000e+001 1.250000000000e+001 0.000000000000e+000
          1.600000000000e+001 1.500000000000e+001 0.000000000000e+000
          1.600000000000e+001 1.750000000000e+001 0.000000000000e+000
          1.600000000000e+001 2.000000000000e+001 0.000000000000e+000
          1.800000000000e+001 0.000000000000e+000 0.000000000000e+000
          1.800000000000e+001 2.500000000000e+000 0.000000000000e+000
          1.800000000000e+001 5.000000000000e+000 0.000000000000e+000
          1.800000000000e+001 7.500000000000e+000 0.000000000000e+000
          1.800000000000e+001 1.000000000000e+001 0.000000000000e+000
          1.800000000000e+001 1.250000000000e+001 0.000000000000e+000
          1.800000000000e+001 1.500000000000e+001 0.000000000000e+000
          1.800000000000e+001 1.750000000000e+001 0.000000000000e+000
          1.800000000000e+001 2.000000000000e+001 0.000000000000e+000
          2.000000000000e+001 0.000000000000e+000 0.000000000000e+000
          2.000000000000e+001 2.500000000000e+000 0.000000000000e+000
          2.000000000000e+001 5.000000000000e+000 0.000000000000e+000
          2.000000000000e+001 7.500000000000e+000 0.000000000000e+000
          2.000000000000e+001 1.000000000000e+001 0.000000000000e+000
          2.000000000000e+001 1.250000000000e+001 0.000000000000e+000
          2.000000000000e+001 1.500000000000e+001 0.000000000000e+000
          2.000000000000e+001 1.750000000000e+001 0.000000000000e+000
          2.000000000000e+001 2.000000000000e+001 0.000000000000e+000
          2.200000000000e+001 0.000000000000e+000 0.000000000000e+000
          2.200000000000e+001 2.500000000000e+000 0.000000000000e+000
          2.200000000000e+001 5.000000000000e+000 0.000000000000e+000
          2.200000000000e+001 7.500000000000e+000 0.000000000000e+000
          2.200000000000e+001 1.000000000000e+001 0.000000000000e+000
          2.200000000000e+001 1.250000000000e+001 0.000000000000e+000
          2.200000000000e+001 1.500000000000e+001 0.000000000000e+000
          2.200000000000e+001 1.750000000000e+001 0.000000000000e+000
          2.200000000000e+001 2.000000000000e+001 0.000000000000e+000
          2.400000000000e+001 0.000000000000e+000 0.000000000000e+000
          2.400000000000e+001 2.500000000000e+000 0.000000000000e+000
          2.400000000000e+001 5.000000000000e+000 0.000000000000e+000
          2.400000000000e+001 7.500000000000e+000 0.000000000000e+000
          2.400000000000e+001 1.000000000000e+001 0.000000000000e+000
          2.400000000000e+001 1.250000000000e+001 0.000000000000e+000
          2.400000000000e+001 1.500000000000e+001 0.000000000000e+000
          2.400000000000e+001 1.750000000000e+001 0.000000000000e+000
          2.400000000000e+001 2.000000000000e+001 0.000000000000e+000
          2.600000000000e+001 0.000000000000e+000 0.000000000000e+000
          2.600000000000e+001 2.500000000000e+000 0.000000000000e+000
          2.600000000000e+001 5.000000000000e+000 0.000000000000e+000
          2.600000000000e+001 7.500000000000e+000 0.000000000000e+000
          2.600000000000e+001 1.000000000000e+001 0.000000000000e+000
          2.600000000000e+001 1.250000000000e+001 0.000000000000e+000
          2.600000000000e+001 1.500000000000e+001 0.000000000000e+000
          2.600000000000e+001 1.750000000000e+001 0.000000000000e+000
          2.600000000000e+001 2.000000000000e+001 0.000000000000e+000
          2.800000000000e+001 0.000000000000e+000 0.000000000000e+000
          2.800000000000e+001 2.500000000000e+000 0.000000000000e+000
          2.800000000000e+001 5.000000000000e+000 0.000000000000e+000
          2.800000000000e+001 7.500000000000e+000 0.000000000000e+000
          2.800000000000e+001 1.000000000000e+001 0.000000000000e+000
          2.800000000000e+001 1.250000000000e+001 0.000000000000e+000
          2.800000000000e+001 1.500000000000e+001 0.000000000000e+000
          2.800000000000e+001 1.750000000000e+001 0.000000000000e+000
          2.800000000000e+001 2.000000000000e+001 0.000000000000e+000
          3.000000000000e+001 0.000000000000e+000 0.000000000000e+000
          3.000000000000e+001 2.500000000000e+000 0.000000000000e+000
          3.000000000000e+001 5.000000000000e+000 0.000000000000e+000
          3.000000000000e+001 7.500000000000e+000 0.000000000000e+000
[...]
      <PointData Scalars="CAPILLARY_PRESSURE">
        <DataArray type="Float64" Name="CAPILLARY_PRESSURE" format="ascii">
          3.445251722700e+005 3.424254767100e+005 3.424254767100e+005 3.445251722700e+005 3.424254767100e+005 3.445251722700e+005 3.424254767100e+005 3.445251722700e+005 3.424254767100e+005 3.445251722700e+005 3.424254767100e+005 3.445251722700e+005 3.424254767100e+005 3.445251722700e+005 3.424254767100e+005 3.445251722700e+005 3.424254767100e+005 3.445251722700e+005 3.403300746820e+005 3.403300746820e+005 3.403300746820e+005 3.403300746820e+005 3.403300746820e+005 3.403300746820e+005 3.403300746820e+005 3.403300746820e+005 3.403300746820e+005 3.382383430068e+005 3.382383430068e+005 3.382383430068e+005 3.382383430067e+005 3.382383430068e+005 3.382383430068e+005 3.382383430068e+005 3.382383430067e+005 3.382383430068e+005 3.361499387848e+005 3.361499387848e+005 3.361499387848e+005 3.361499387848e+005 3.361499387848e+005 3.361499387848e+005 3.361499387848e+005 3.361499387848e+005 3.361499387848e+005 3.340644623493e+005 3.340644623493e+005 3.340644623493e+005 3.340644623493e+005 3.340644623493e+005 3.340644623493e+005 3.340644623493e+005 3.340644623493e+005 3.340644623493e+005 3.319814878397e+005 3.319814878397e+005 3.319814878397e+005 3.319814878397e+005 3.319814878397e+005 3.319814878397e+005 3.319814878397e+005 3.319814878397e+005 3.319814878397e+005 3.299005610229e+005 3.299005610229e+005 3.299005610229e+005 3.299005610229e+005 3.299005610229e+005 3.299005610229e+005 3.299005610229e+005 3.299005610229e+005 3.299005610229e+005 3.278212019198e+005 3.278212019198e+005 3.278212019198e+005 3.278212019198e+005 3.278212019198e+005 3.278212019198e+005 3.278212019198e+005 3.278212019198e+005 3.278212019198e+005 3.257429076948e+005 3.257429076948e+005 3.257429076948e+005 3.257429076948e+005 3.257429076948e+005 3.257429076948e+005 3.257429076948e+005 3.257429076948e+005 3.257429076948e+005 3.236651531178e+005 3.236651531179e+005 3.236651531178e+005 3.236651531179e+005 3.236651531179e+005 3.236651531179e+005 3.236651531179e+005 3.236651531179e+005 3.236651531178e+005 3.215873904909e+005 3.215873904909e+005 3.215873904909e+005 3.215873904909e+005 3.215873904909e+005 3.215873904909e+005 3.215873904909e+005 3.215873904909e+005 3.215873904909e+005 3.195090491730e+005 3.195090491730e+005 3.195090491730e+005 3.195090491730e+005 3.195090491730e+005 3.195090491730e+005 3.195090491730e+005 3.195090491730e+005 3.195090491730e+005 3.174295345264e+005 3.174295345264e+005 3.174295345264e+005 3.174295345264e+005 3.174295345264e+005 3.174295345264e+005 3.174295345264e+005 3.174295345264e+005 3.174295345264e+005 3.153482263698e+005 3.153482263698e+005 3.153482263698e+005 3.153482263698e+005 3.153482263698e+005 3.153482263698e+005 3.153482263698e+005 3.153482263698e+005 3.153482263698e+005 3.132644771977e+005 3.132644771976e+005 3.132644771977e+005 3.132644771977e+005 3.132644771976e+005 3.132644771976e+005 3.132644771977e+005 3.132644771976e+005 3.132644771976e+005 3.111776103300e+005 3.111776103300e+005 3.111776103300e+005 3.111776103300e+005 3.111776103300e+005 3.111776103300e+005 3.111776103300e+005 3.111776103300e+005 3.111776103300e+005 3.090869180614e+005 3.090869180614e+005 3.090869180614e+005 3.090869180614e+005 3.090869180614e+005 3.090869180614e+005 3.090869180614e+005 3.090869180614e+005 3.090869180614e+005 3.069916598059e+005 3.069916598059e+005 3.069916598059e+005 3.069916598059e+005 3.069916598059e+005 3.069916598059e+005 3.069916598059e+005 3.069916598059e+005 3.069916598059e+005 3.048910602068e+005 3.048910602068e+005 3.048910602068e+005 3.048910602068e+005 3.048910602068e+005 3.048910602068e+005 3.048910602068e+005 3.048910602068e+005 3.048910602068e+005 3.027843071688e+005 3.027843071688e+005 3.027843071688e+005 3.027843071688e+005 3.027843071688e+005 3.027843071688e+005 3.027843071688e+005 3.027843071688e+005 3.027843071688e+005 3.006705497734e+005 3.006705497734e+005 3.006705497734e+005 3.006705497734e+005 3.006705497734e+005 3.006705497734e+005 3.006705497734e+005 3.006705497734e+005 3.006705497734e+005 2.985488960422e+005 2.985488960422e+005 2.985488960422e+005 2.985488960422e+005 2.985488960422e+005 2.985488960422e+005 2.985488960422e+005 2.985488960422e+005 2.985488960422e+005 2.964184105186e+005 2.964184105186e+005 2.964184105186e+005 2.964184105186e+005 2.964184105186e+005 2.964184105186e+005 2.964184105186e+005 2.964184105186e+005 2.964184105186e+005 2.942781116382e+005 2.942781116382e+005 2.942781116382e+005 2.942781116382e+005 2.942781116382e+005 2.942781116382e+005 2.942781116382e+005 2.942781116382e+005 2.942781116382e+005 2.921269688639e+005 2.921269688639e+005 2.921269688639e+005 2.921269688639e+005 2.921269688639e+005 2.921269688639e+005 2.921269688639e+005 2.921269688639e+005 2.921269688639e+005 2.899638995563e+005 2.899638995563e+005 2.899638995563e+005 2.899638995563e+005 2.899638995563e+005 2.899638995563e+005 2.899638995563e+005 2.899638995563e+005 2.899638995563e+005 2.877877655515e+005 2.877877655515e+005 2.877877655515e+005 2.877877655515e+005 2.877877655515e+005 2.877877655515e+005 2.877877655515e+005 2.877877655515e+005 2.877877655515e+005 2.855973694146e+005 2.855973694146e+005 2.855973694146e+005 2.855973694146e+005 2.855973694146e+005 2.855973694146e+005 2.855973694146e+005 2.855973694146e+005 2.855973694146e+005 2.833914503315e+005 2.833914503315e+005 2.833914503315e+005 2.833914503315e+005 2.833914503315e+005 2.833914503315e+005 2.833914503314e+005 2.833914503315e+005 2.833914503315e+005 2.811686795992e+005 2.811686795992e+005 2.811686795992e+005 2.811686795992e+005 2.811686795992e+005 2.811686795992e+005 2.811686795992e+005 2.811686795992e+005 2.811686795991e+005 2.789276556679e+005 2.789276556679e+005 2.789276556679e+005 2.789276556679e+005 2.789276556679e+005 2.789276556679e+005 2.789276556679e+005 2.789276556679e+005 2.789276556679e+005 2.766668986804e+005 2.766668986804e+005 2.766668986804e+005 2.766668986804e+005 2.766668986804e+005 2.766668986804e+005 2.766668986804e+005 2.766668986804e+005 2.766668986804e+005 2.743848444479e+005 2.743848444479e+005 2.743848444479e+005 2.743848444479e+005 2.743848444479e+005 2.743848444479e+005 2.743848444479e+005 2.743848444479e+005 2.743848444479e+005 2.720798377901e+005 2.720798377901e+005 2.720798377901e+005 2.720798377901e+005 2.720798377901e+005 2.720798377901e+005 2.720798377901e+005 2.720798377901e+005 2.720798377901e+005 2.697501251589e+005 2.697501251589e+005 2.697501251589e+005 2.697501251589e+005 2.697501251589e+005 2.697501251588e+005 2.697501251589e+005 2.697501251589e+005 2.697501251589e+005 2.673938464474e+005 2.673938464474e+005 2.673938464474e+005 2.673938464474e+005 2.673938464474e+005 2.673938464474e+005 2.673938464474e+005 2.673938464474e+005 2.673938464474e+005 2.650090258765e+005 2.650090258765e+005 2.650090258765e+005 2.650090258765e+005 2.650090258765e+005 2.650090258765e+005 2.650090258765e+005 2.650090258765e+005 2.650090258765e+005 2.625935618257e+005 2.625935618257e+005 2.625935618257e+005 2.625935618257e+005 2.625935618257e+005 2.625935618257e+005 2.625935618257e+005 2.625935618257e+005 2.625935618257e+005 2.601452154591e+005 2.601452154591e+005 2.601452154591e+005 2.601452154591e+005 2.601452154591e+005 2.601452154591e+005 2.601452154591e+005 2.601452154591e+005 2.601452154591e+005 2.576615979661e+005 2.576615979661e+005 2.576615979661e+005 2.576615979661e+005 2.576615979661e+005 2.576615979661e+005 2.576615979661e+005 2.576615979661e+005 2.576615979661e+005 2.551401562063e+005 2.551401562063e+005 2.551401562063e+005 2.551401562063e+005 2.551401562063e+005 2.551401562063e+005 2.551401562063e+005 2.551401562063e+005 2.551401562063e+005 2.525781565091e+005 2.525781565091e+005 2.525781565091e+005 2.525781565091e+005 2.525781565091e+005 2.525781565091e+005 2.525781565091e+005 2.525781565091e+005 2.525781565091e+005 2.499726663303e+005 2.499726663303e+005 2.499726663303e+005 2.499726663303e+005 2.499726663303e+005 2.499726663303e+005 2.499726663303e+005 2.499726663303e+005 2.499726663303e+005 2.473205334107e+005 2.473205334107e+005 2.473205334107e+005 2.473205334107e+005 2.473205334107e+005 2.473205334107e+005 2.473205334107e+005 2.473205334107e+005 2.473205334107e+005 2.446183620105e+005 2.446183620105e+005 2.446183620105e+005 2.446183620105e+005 2.446183620105e+005 2.446183620105e+005 2.446183620105e+005 2.446183620105e+005 2.446183620105e+005 2.418624857055e+005 2.418624857055e+005 2.418624857055e+005 2.418624857055e+005 2.418624857055e+005 2.418624857055e+005 2.418624857055e+005 2.418624857055e+005 2.418624857055e+005 2.390489361219e+005 2.390489361219e+005 2.390489361219e+005 2.390489361219e+005 2.390489361219e+005 2.390489361219e+005 2.390489361219e+005 2.390489361219e+005 2.390489361219e+005 2.361734068524e+005 2.361734068524e+005 2.361734068524e+005 2.361734068524e+005 2.361734068524e+005 2.361734068524e+005 2.361734068524e+005 2.361734068524e+005 2.361734068524e+005 2.332312116233e+005 2.332312116233e+005 2.332312116233e+005 2.332312116233e+005 2.332312116233e+005 2.332312116232e+005 2.332312116233e+005 2.332312116232e+005 2.332312116233e+005 2.302172355673e+005 2.302172355673e+005 2.302172355673e+005 2.302172355673e+005 2.302172355673e+005 2.302172355673e+005 2.302172355673e+005 2.302172355673e+005 2.302172355673e+005 2.271258781844e+005 2.271258781843e+005 2.271258781843e+005 2.271258781843e+005 2.271258781843e+005 2.271258781843e+005 2.271258781843e+005 2.271258781843e+005 2.271258781843e+005 2.239509862114e+005 2.239509862114e+005 2.239509862114e+005 2.239509862114e+005 2.239509862114e+005 2.239509862114e+005 2.239509862114e+005 2.239509862114e+005 2.239509862114e+005 2.206857741678e+005 2.206857741678e+005 2.206857741678e+005 2.206857741678e+005 2.206857741678e+005 2.206857741678e+005 2.206857741678e+005 2.206857741678e+005 2.206857741678e+005 2.173227297285e+005 2.173227297285e+005 2.173227297285e+005 2.173227297285e+005 2.173227297285e+005 2.173227297285e+005 2.173227297285e+005 2.173227297285e+005 2.173227297285e+005 2.138535002707e+005 2.138535002707e+005 2.138535002707e+005 2.138535002707e+005 2.138535002707e+005 2.138535002707e+005 2.138535002707e+005 2.138535002707e+005 2.138535002707e+005 2.102687558402e+005 2.102687558402e+005 2.102687558402e+005 2.102687558402e+005 2.102687558402e+005 2.102687558402e+005 2.102687558402e+005 2.102687558402e+005 2.102687558402e+005 2.065580222833e+005 2.065580222833e+005 2.065580222833e+005 2.065580222833e+005 2.065580222833e+005 2.065580222833e+005 2.065580222833e+005 2.065580222833e+005 2.065580222833e+005 2.027094761999e+005 2.027094761999e+005 2.027094761999e+005 2.027094761999e+005 2.027094761999e+005 2.027094761999e+005 2.027094761999e+005 2.027094761999e+005 2.027094761999e+005 1.987096904277e+005 1.987096904277e+005 1.987096904277e+005 1.987096904277e+005 1.987096904277e+005 1.987096904277e+005 1.987096904277e+005 1.987096904277e+005 1.987096904277e+005 1.945433145548e+005 1.945433145548e+005 1.945433145548e+005 1.945433145548e+005 1.945433145548e+005 1.945433145548e+005 1.945433145548e+005 1.945433145548e+005 1.945433145548e+005 1.901926688446e+005 1.901926688446e+005 1.901926688446e+005 1.901926688446e+005 1.901926688446e+005 1.901926688446e+005 1.901926688446e+005 1.901926688446e+005 1.901926688446e+005 1.856372209296e+005 1.856372209296e+005 1.856372209296e+005 1.856372209296e+005 1.856372209296e+005 1.856372209296e+005 1.856372209296e+005 1.856372209296e+005 1.856372209296e+005 1.808529010746e+005 1.808529010746e+005 1.808529010746e+005 1.808529010746e+005 1.808529010746e+005 1.808529010746e+005 1.808529010746e+005 1.808529010746e+005 1.808529010746e+005 1.758111911752e+005 1.758111911752e+005 1.758111911752e+005 1.758111911752e+005 1.758111911752e+005 1.758111911752e+005 1.758111911752e+005 1.758111911752e+005 1.758111911752e+005 1.704778905895e+005 1.704778905895e+005 1.704778905895e+005 1.704778905895e+005 1.704778905895e+005 1.704778905895e+005 1.704778905895e+005 1.704778905895e+005 1.704778905895e+005 1.648114104672e+005 1.648114104672e+005 1.648114104672e+005 1.648114104672e+005 1.648114104672e+005 1.648114104672e+005 1.648114104672e+005 1.648114104671e+005 1.648114104671e+005 1.587603663251e+005 1.587603663251e+005 1.587603663251e+005 1.587603663251e+005 1.587603663250e+005 1.587603663250e+005 1.587603663250e+005 1.587603663250e+005 1.587603663250e+005 1.522600960828e+005 1.522600960828e+005 1.522600960828e+005 1.522600960828e+005 1.522600960828e+005 1.522600960828e+005 1.522600960828e+005 1.522600960828e+005 1.522600960828e+005 1.452274681493e+005 1.452274681493e+005 1.452274681493e+005 1.452274681493e+005 1.452274681492e+005 1.452274681492e+005 1.452274681492e+005 1.452274681492e+005 1.452274681492e+005 1.375528501048e+005 1.375528501049e+005 1.375528501048e+005 1.375528501048e+005 1.375528501048e+005 1.375528501047e+005 1.375528501047e+005 1.375528501047e+005 1.375528501047e+005 1.290871256493e+005 1.290871256492e+005 1.290871256492e+005 1.290871256492e+005 1.290871256490e+005 1.290871256490e+005 1.290871256489e+005 1.290871256489e+005 1.290871256488e+005 1.196194317857e+005 1.196194317858e+005 1.196194317857e+005 1.196194317856e+005 1.196194317856e+005 1.196194317855e+005 1.196194317855e+005 1.196194317854e+005 1.196194317854e+005 1.088369744026e+005 1.088369744026e+005 1.088369744026e+005 1.088369744027e+005 1.088369744025e+005 1.088369744026e+005 1.088369744025e+005 1.088369744024e+005 1.088369744024e+005 9.624474455715e+004 9.624474455665e+004 9.624474455656e+004 9.624474455658e+004 9.624474455577e+004 9.624474455461e+004 9.624474455439e+004 9.624474455358e+004 9.624474455317e+004 8.099035892011e+004 8.099035892047e+004 8.099035892099e+004 8.099035892208e+004 8.099035892281e+004 8.099035892607e+004 8.099035892602e+004 8.099035892773e+004 8.099035892833e+004 6.142265940517e+004 6.142265942663e+004 6.142265942856e+004 6.142265941200e+004 6.142265944173e+004 6.142265944134e+004 6.142265944584e+004 6.142265945299e+004 6.142265945954e+004 3.383530810666e+004 3.383530796116e+004 3.383530795731e+004 3.383530808418e+004 3.383530790098e+004 3.383530791757e+004 3.383530791190e+004 3.383530787078e+004 3.383530783530e+004 -7.594796300602e+003 -7.594795355462e+003 -7.594795357762e+003 -7.594796261197e+003 -7.594795097953e+003 -7.594795442618e+003 -7.594795421093e+003 -7.594795250218e+003 -7.594795087371e+003 -5.336620602194e+004 -5.336620710823e+004 -5.336620541545e+004 -5.336620594218e+004 -5.336620557798e+004 -5.336620620752e+004 -5.336620621639e+004 -5.336620518469e+004 -5.336620646254e+004 -9.907017452068e+004 -9.907017158075e+004 -9.907017085020e+004 -9.907017222712e+004 -9.907017126414e+004 -9.907017042317e+004 -9.907017099344e+004 -9.907017046111e+004 -9.907017185623e+004 -1.446823180748e+005 -1.446823150330e+005 -1.446823135126e+005 -1.446823148054e+005 -1.446823148734e+005 -1.446823151308e+005 -1.446823149178e+005 -1.446823153835e+005 -1.446823133032e+005 -1.902092645120e+005 -1.902092634501e+005 -1.902092621005e+005 -1.902092629183e+005 -1.902092634524e+005 -1.902092632380e+005 -1.902092633803e+005 -1.902092621204e+005 -1.902092621054e+005 -2.356567774380e+005 -2.356567755024e+005 -2.356567742946e+005 -2.356567746104e+005 -2.356567741037e+005 -2.356567725918e+005 -2.356567743329e+005 -2.356567737555e+005 -2.356567732217e+005 -2.810292568535e+005 -2.810292539848e+005 -2.810292532830e+005 -2.810292514212e+005 -2.810292514929e+005 -2.810292512051e+005 -2.810292514522e+005 -2.810292501192e+005 -2.810292493943e+005 -3.263310199094e+005 -3.263310189715e+005 -3.263310179281e+005 -3.263310165438e+005 -3.263310159270e+005 -3.263310150267e+005 -3.263310151213e+005 -3.263310137210e+005 -3.263310142413e+005 -3.715660323886e+005 -3.715660322353e+005 -3.715660300583e+005 -3.715660313432e+005 -3.715660290293e+005 -3.715660285859e+005 -3.715660282966e+005 -3.715660271489e+005 -3.715660260527e+005 -4.167380805334e+005 -4.167380795406e+005 -4.167380804698e+005 -4.167380781851e+005 -4.167380778516e+005 -4.167380766903e+005 -4.167380764559e+005 -4.167380762571e+005 -4.167380751820e+005 -4.618508494875e+005 -4.618508510643e+005 -4.618508504236e+005 -4.618508502384e+005 -4.618508488001e+005 -4.618508483640e+005 -4.618508475028e+005 -4.618508461046e+005 -4.618508454286e+005 -5.069080037559e+005 -5.069080056345e+005 -5.069080063624e+005 -5.069080048934e+005 -5.069080032783e+005 -5.069080033766e+005 -5.069080018012e+005 -5.069080004490e+005 -5.069080002913e+005 -5.519132299436e+005 -5.519132322795e+005 -5.519132321308e+005 -5.519132320939e+005 -5.519132311189e+005 -5.519132293412e+005 -5.519132281484e+005 -5.519132278512e+005 -5.519132271744e+005 -5.968703023502e+005 -5.968703004080e+005 -5.968703012687e+005 -5.968703012009e+005 -5.968703008837e+005 -5.968702983213e+005 -5.968702972962e+005 -5.968702980939e+005 -5.968702977629e+005 -6.417831063857e+005 -6.417831058191e+005 -6.417831055813e+005 -6.417831054834e+005 -6.417831045126e+005 -6.417831022743e+005 -6.417831029178e+005 -6.417831022856e+005 -6.417831026163e+005 -6.866556777038e+005 -6.866556769259e+005 -6.866556768769e+005 -6.866556754463e+005 -6.866556752932e+005 -6.866556742476e+005 -6.866556739685e+005 -6.866556733776e+005 -6.866556740857e+005 -7.314921840672e+005 -7.314921831661e+005 -7.314921835362e+005 -7.314921831681e+005 -7.314921820321e+005 -7.314921819120e+005 -7.314921812912e+005 -7.314921812209e+005 -7.314921800273e+005 -7.762969167888e+005 -7.762969174595e+005 -7.762969182345e+005 -7.762969177734e+005 -7.762969170365e+005 -7.762969173363e+005 -7.762969166862e+005 -7.762969167200e+005 -7.762969164466e+005 -8.210742714270e+005 -8.210742721977e+005 -8.210742727409e+005 -8.210742721559e+005 -8.210742721098e+005 -8.210742723315e+005 -8.210742715153e+005 -8.210742720463e+005 -8.210742721163e+005 -8.658287164646e+005 -8.658287165783e+005 -8.658287169217e+005 -8.658287170470e+005 -8.658287159037e+005 -8.658287157430e+005 -8.658287160471e+005 -8.658287163126e+005 -8.658287161551e+005 -9.105647739163e+005 -9.105647747385e+005 -9.105647753703e+005 -9.105647752975e+005 -9.105647749928e+005 -9.105647743141e+005 -9.105647743140e+005 -9.105647744840e+005 -9.105647745961e+005 -9.552870083728e+005 -9.552870088047e+005 -9.552870090564e+005 -9.552870089064e+005 -9.552870089994e+005 -9.552870085403e+005 -9.552870085398e+005 -9.552870087037e+005 -9.552870085457e+005 -1.000000000000e+006 -1.000000000000e+006 -1.000000000000e+006 -1.000000000000e+006 -1.000000000000e+006 -1.000000000000e+006 -1.000000000000e+006 -1.000000000000e+006 -1.000000000000e+006 
        </DataArray>
        <DataArray type="Float64" Name="NONWET_PRESSURE" format="ascii">