<?xml version="1.0"?>
<VTKFile type="UnstructuredGrid" version="0.1" byte_order="LittleEndian">
  <UnstructuredGrid>
    <Piece NumberOfPoints="909" NumberOfCells="800">
      <Points>
        <DataArray type="Float64" NumberOfComponents="3" format="ascii">
          0.000000000000e+000 0.000000000000e+000 0.000000000000e+000
          2.000000000000e+000 0.000000000000e+000 0.000000000000e+000
          2.000000000000e+000 2.500000000000e+000 0.000000000000e+000
          0.000000000000e+000 2.500000000000e+000 0.000000000000e+000
          2.000000000000e+000 5.000000000000e+000 0.000000000000e+000
          0.000000000000e+000 5.000000000000e+000 0.000000000000e+000
          2.000000000000e+000 7.500000000000e+000 0.000000000000e+000
          0.000000000000e+000 7.500000000000e+000 0.000000000000e+000
          2.000000000000e+000 1.000000000000e+001 0.000000000000e+000
          0.000000000000e+000 1.000000000000e+001 0.000000000000e+000
          2.000000000000e+000 1.250000000000e+001 0.000000000000e+000
          0.000000000000e+000 1.250000000000e+001 0.000000000000e+000
          2.000000000000e+000 1.500000000000e+001 0.000000000000e+000
          0.000000000000e+000 1.500000000000e+001 0.000000000000e+000
          2.000000000000e+000 1.750000000000e+001 0.000000000000e+000
          0.000000000000e+000 1.750000000000e+001 0.000000000000e+000
          2.000000000000e+000 2.000000000000e+001 0.000000000000e+000
          0.000000000000e+000 2.000000000000e+001 0.000000000000e+000
          4.000000000000e+000 0.000000000000e+000 0.000000000000e+000
          4.000000000000e+000 2.500000000000e+000 0.000000000000e+000
          4.000000000000e+000 5.000000000000e+000 0.000000000000e+000
          4.000000000000e+000 7.500000000000e+000 0.000000000000e+000
          4.000000000000e+000 1.000000000000e+001 0.000000000000e+000
          4.000000000000e+000 1.250000000000e+001 0.000000000000e+000
          4.000000000000e+000 1.500000000000e+001 0.000000000000e+000
          4.000000000000e+000 1.750000000000e+001 0.000000000000e+000
          4.000000000000e+000 2.000000000000e+001 0.000000000000e+000
          6.000000000000e+000 0.000000000000e+000 0.000000000000e+000
          6.000000000000e+000 2.500000000000e+000 0.000000000000e+000
          6.000000000000e+000 5.000000000000e+000 0.000000000000e+000
          6.000000000000e+000 7.500000000000e+000 0.000000000000e+000
          6.000000000000e+000 1.000000000000e+001 0.000000000000e+000
          6.000000000000e+000 1.250000000000e+001 0.000000000000e+000
          6.000000000000e+000 1.500000000000e+001 0.000000000000e+000
          6.000000000000e+000 1.750000000000e+001 0.000000000000e+000
          6.000000000000e+000 2.000000000000e+001 0.000000000000e+000
          8.000000000000e+000 0.000000000000e+000 0.000000000000e+000
          8.000000000000e+000 2.500000000000e+000 0.000000000000e+000
          8.000000000000e+000 5.000000000000e+000 0.000000000000e+000
          8.000000000000e+000 7.500000000000e+000 0.000000000000e+000
          8.000000000000e+000 1.000000000000e+001 0.000000000000e+000
          8.000000000000e+000 1.250000000000e+001 0.000000000000e+000
          8.000000000000e+000 1.500000000000e+001 0.000000000000e+000
          8.000000000000e+000 1.750000000000e+001 0.000000000000e+000
          8.000000000000e+000 2.000000000000e+001 0.000000000000e+000
          1.000000000000e+001 0.000000000000e+000 0.000000000000e+000
          1.000000000000e+001 2.500000000000e+000 0.000000000000e+000
          1.000000000000e+001 5.000000000000e+000 0.000000000000e+000
          1.000000000000e+001 7.500000000000e+000 0.000000000000e+000
          1.000000000000e+001 1.000000000000e+001 0.000000000000e+000
          1.000000000000e+001 1.250000000000e+001 0.000000000000e+000
          1.000000000000e+001 1.500000000000e+001 0.000000000000e+000
          1.000000000000e+001 1.750000000000e+001 0.000000000000e+000
          1.000000000000e+001 2.000000000000e+001 0.000000000000e+000
          1.200000000000e+001 0.000000000000e+000 0.000000000000e+000
          1.200000000000e+001 2.500000000000e+000 0.000000000000e+000
          1.200000000000e+001 5.000000000000e+000 0.000000000000e+000
          1.200000000000e+001 7.500000000000e+000 0.000000000000e+000
          1.200000000000e+001 1.000000000000e+001 0.000000000000e+000
          1.200000000000e+001 1.250000000000e+001 0.000000000000e+000
          1.200000000000e+001 1.500000000000e+001 0.000000000000e+000
          1.200000000000e+001 1.750000000000e+001 0.000000000000e+000
          1.200000000000e+001 2.000000000000e+001 0.000000000000e+000
          1.400000000000e+001 0.000000000000e+000 0.000000000000e+000
          1.400000000000e+001 2.500000000000e+000 0.000000000000e+000
          1.400000000000e+001 5.000000000000e+000 0.000000000000e+000
          1.400000000000e+001 7.500000000000e+000 0.000000000000e+000
          1.400000000000e+001 1.000000000000e+001 0.000000000000e+000
          1.400000000000e+001 1.250000000000e+001 0.000000000000e+000
          1.400000000000e+001 1.500000000000e+001 0.000000000000e+000
          1.400000000000e+001 1.750000000000e+001 0.000000000000e+000
          1.400000000000e+001 2.000000000000e+001 0.000000000000e+000
          1.600000000000e+001 0.000000000000e+000 0.000000000000e+000
          1.600000000000e+001 2.500000000000e+000 0.000000000000e+000
          1.600000000000e+001 5.000000000000e+000 0.000000000000e+000
          1.600000000000e+001 7.500000000000e+000 0.000000000000e+000
          1.600000000000e+001 1.000000000000e+001 0.000000000000e+000
          1.600000000000e+001 1.250000000000e+001 0.000000000000e+000
          1.600000000000e+001 1.500000000000e+001 0.000000000000e+000
          1.600000000000e+001 1.750000000000e+001 0.000000000000e+000
          1.600000000000e+001 2.000000000000e+001 0.000000000000e+000
          1.800000000000e+001 0.000000000000e+000 0.000000000000e+000
          1.800000000000e+001 2.500000000000e+000 0.000000000000e+000
          1.800000000000e+001 5.000000000000e+000 0.000000000000e+000
          1.800000000000e+001 7.500000000000e+000 0.000000000000e+000
          1.800000000000e+001 1.000000000000e+001 0.000000000000e+000
          1.800000000000e+001 1.250000000000e+001 0.000000000000e+000
          1.800000000000e+001 1.500000000000e+001 0.000000000000e+000
          1.800000000000e+001 1.750000000000e+001 0.000000000000e+000
          1.800000000000e+001 2.000000000000e+001 0.000000000000e+000
          2.000000000000e+001 0.000000000000e+000 0.000000000000e+000
          2.000000000000e+001 2.500000000000e+000 0.000000000000e+000
          2.000000000000e+001 5.000000000000e+000 0.000000000000e+000
          2.000000000000e+001 7.500000000000e+000 0.000000000000e+000
          2.000000000000e+001 1.000000000000e+001 0.000000000000e+000
          2.000000000000e+001 1.250000000000e+001 0.000000000000e+000
          2.000000000000e+001 1.500000000000e+001 0.000000000000e+000
          2.000000000000e+001 1.750000000000e+001 0.000000000000e+000
          2.000000000000e+001 2.000000000000e+001 0.000000000000e+000
          2.200000000000e+001 0.000000000000e+000 0.000000000000e+000
          2.200000000000e+001 2.500000000000e+000 0.000000000000e+000
          2.200000000000e+001 5.000000000000e+000 0.000000000000e+000
          2.200000000000e+001 7.500000000000e+000 0.000000000000e+000
          2.200000000000e+001 1.000000000000e+001 0.000000000000e+000
          2.200000000000e+001 1.250000000000e+001 0.000000000000e+000
          2.200000000000e+001 1.500000000000e+001 0.000000000000e+000
          2.200000000000e+001 1.750000000000e+001 0.000000000000e+000
          2.200000000000e+001 2.000000000000e+001 0.000000000000e+000
          2.400000000000e+001 0.000000000000e+000 0.000000000000e+000
          2.400000000000e+001 2.500000000000e+000 0.000000000000e+000
          2.400000000000e+001 5.000000000000e+000 0.000000000000e+000
          2.400000000000e+001 7.500000000000e+000 0.000000000000e+000
          2.400000000000e+001 1.000000000000e+001 0.000000000000e+000
          2.400000000000e+001 1.250000000000e+001 0.000000000000e+000
          2.400000000000e+001 1.500000000000e+001 0.000000000000e+000
          2.400000000000e+001 1.750000000000e+001 0.000000000000e+000
          2.400000000000e+001 2.000000000000e+001 0.000000000000e+000
          2.600000000000e+001 0.000000000000e+000 0.000000000000e+000
          2.600000000000e+001 2.500000000000e+000 0.000000000000e+000
          2.600000000000e+001 5.000000000000e+000 0.000000000000e+000
          2.600000000000e+001 7.500000000000e+000 0.000000000000e+000
          2.600000000000e+001 1.000000000000e+001 0.000000000000e+000
          2.600000000000e+001 1.250000000000e+001 0.000000000000e+000
          2.600000000000e+001 1.500000000000e+001 0.000000000000e+000
          2.600000000000e+001 1.750000000000e+001 0.000000000000e+000
          2.600000000000e+001 2.000000000000e+001 0.000000000000e+000
          2.800000000000e+001 0.000000000000e+000 0.000000000000e+000
          2.800000000000e+001 2.500000000000e+000 0.000000000000e+000
          2.800000000000e+001 5.000000000000e+000 0.000000000000e+000
          2.800000000000e+001 7.500000000000e+000 0.000000000000e+000
          2.800000000000e+001 1.000000000000e+001 0.000000000000e+000
          2.800000000000e+001 1.250000000000e+001 0.000000000000e+000
          2.800000000000e+001 1.500000000000e+001 0.000000000000e+000
          2.800000000000e+001 1.750000000000e+001 0.000000000000e+000
          2.800000000000e+001 2.000000000000e+001 0.000000000000e+000
          3.000000000000e+001 0.000000000000e+000 0.000000000000e+000
          3.000000000000e+001 2.500000000000e+000 0.000000000000e+000
          3.000000000000e+001 5.000000000000e+000 0.000000000000e+000
          3.000000000000e+001 7.500000000000e+000 0.000000000000e+000
[...]
      <PointData Scalars="CAPILLARY_PRESSURE">
        <DataArray type="Float64" Name="CAPILLARY_PRESSURE" format="ascii">
          3.748730408168e+005 3.729957285021e+005 3.729957285020e+005 3.748730408167e+005 3.729957285020e+005 3.748730408167e+005 3.729957285020e+005 3.748730408167e+005 3.729957285020e+005 3.748730408167e+005 3.729957285020e+005 3.748730408167e+005 3.729957285020e+005 3.748730408167e+005 3.729957285020e+005 3.748730408167e+005 3.729957285020e+005 3.748730408166e+005 3.711100838632e+005 3.711100838632e+005 3.711100838632e+005 3.711100838632e+005 3.711100838632e+005 3.711100838632e+005 3.711100838632e+005 3.711100838632e+005 3.711100838632e+005 3.692157454920e+005 3.692157454920e+005 3.692157454920e+005 3.692157454920e+005 3.692157454920e+005 3.692157454919e+005 3.692157454919e+005 3.692157454920e+005 3.692157454920e+005 3.673123450400e+005 3.673123450401e+005 3.673123450401e+005 3.673123450401e+005 3.673123450401e+005 3.673123450401e+005 3.673123450401e+005 3.673123450401e+005 3.673123450401e+005 3.653994981605e+005 3.653994981605e+005 3.653994981605e+005 3.653994981605e+005 3.653994981605e+005 3.653994981605e+005 3.653994981605e+005 3.653994981605e+005 3.653994981605e+005 3.634768044457e+005 3.634768044457e+005 3.634768044457e+005 3.634768044457e+005 3.634768044457e+005 3.634768044457e+005 3.634768044457e+005 3.634768044457e+005 3.634768044457e+005 3.615438480395e+005 3.615438480395e+005 3.615438480395e+005 3.615438480395e+005 3.615438480395e+005 3.615438480395e+005 3.615438480395e+005 3.615438480395e+005 3.615438480395e+005 3.596001970437e+005 3.596001970437e+005 3.596001970437e+005 3.596001970437e+005 3.596001970437e+005 3.596001970437e+005 3.596001970437e+005 3.596001970438e+005 3.596001970438e+005 3.576454024753e+005 3.576454024753e+005 3.576454024753e+005 3.576454024753e+005 3.576454024753e+005 3.576454024753e+005 3.576454024753e+005 3.576454024753e+005 3.576454024753e+005 3.556789970593e+005 3.556789970593e+005 3.556789970593e+005 3.556789970593e+005 3.556789970593e+005 3.556789970593e+005 3.556789970593e+005 3.556789970593e+005 3.556789970593e+005 3.537004935231e+005 3.537004935231e+005 3.537004935232e+005 3.537004935231e+005 3.537004935231e+005 3.537004935231e+005 3.537004935231e+005 3.537004935231e+005 3.537004935232e+005 3.517093830040e+005 3.517093830039e+005 3.517093830039e+005 3.517093830039e+005 3.517093830040e+005 3.517093830039e+005 3.517093830039e+005 3.517093830039e+005 3.517093830039e+005 3.497051337652e+005 3.497051337651e+005 3.497051337651e+005 3.497051337651e+005 3.497051337651e+005 3.497051337652e+005 3.497051337651e+005 3.497051337652e+005 3.497051337652e+005 3.476871900676e+005 3.476871900676e+005 3.476871900677e+005 3.476871900677e+005 3.476871900677e+005 3.476871900677e+005 3.476871900677e+005 3.476871900677e+005 3.476871900677e+005 3.456549710851e+005 3.456549710851e+005 3.456549710851e+005 3.456549710851e+005 3.456549710851e+005 3.456549710851e+005 3.456549710851e+005 3.456549710851e+005 3.456549710851e+005 3.436078697924e+005 3.436078697924e+005 3.436078697924e+005 3.436078697924e+005 3.436078697924e+005 3.436078697924e+005 3.436078697924e+005 3.436078697924e+005 3.436078697924e+005 3.415452517876e+005 3.415452517877e+005 3.415452517877e+005 3.415452517877e+005 3.415452517877e+005 3.415452517877e+005 3.415452517877e+005 3.415452517877e+005 3.415452517877e+005 3.394664540208e+005 3.394664540208e+005 3.394664540208e+005 3.394664540208e+005 3.394664540209e+005 3.394664540209e+005 3.394664540208e+005 3.394664540208e+005 3.394664540208e+005 3.373707834118e+005 3.373707834117e+005 3.373707834117e+005 3.373707834118e+005 3.373707834118e+005 3.373707834118e+005 3.373707834117e+005 3.373707834117e+005 3.373707834118e+005 3.352575153448e+005 3.352575153448e+005 3.352575153449e+005 3.352575153448e+005 3.352575153448e+005 3.352575153448e+005 3.352575153448e+005 3.352575153448e+005 3.352575153448e+005 3.331258920295e+005 3.331258920295e+005 3.331258920295e+005 3.331258920296e+005 3.331258920295e+005 3.331258920295e+005 3.331258920295e+005 3.331258920295e+005 3.331258920295e+005 3.309751207157e+005 3.309751207157e+005 3.309751207157e+005 3.309751207157e+005 3.309751207157e+005 3.309751207157e+005 3.309751207157e+005 3.309751207157e+005 3.309751207157e+005 3.288043717520e+005 3.288043717520e+005 3.288043717520e+005 3.288043717520e+005 3.288043717520e+005 3.288043717520e+005 3.288043717520e+005 3.288043717520e+005 3.288043717520e+005 3.266127764733e+005 3.266127764733e+005 3.266127764733e+005 3.266127764733e+005 3.266127764733e+005 3.266127764733e+005 3.266127764732e+005 3.266127764733e+005 3.266127764733e+005 3.243994249016e+005 3.243994249016e+005 3.243994249015e+005 3.243994249016e+005 3.243994249015e+005 3.243994249016e+005 3.243994249015e+005 3.243994249015e+005 3.243994249015e+005 3.221633632414e+005 3.221633632413e+005 3.221633632413e+005 3.221633632413e+005 3.221633632413e+005 3.221633632413e+005 3.221633632413e+005 3.221633632413e+005 3.221633632413e+005 3.199035911485e+005 3.199035911486e+005 3.199035911486e+005 3.199035911485e+005 3.199035911486e+005 3.199035911485e+005 3.199035911485e+005 3.199035911485e+005 3.199035911486e+005 3.176190587476e+005 3.176190587475e+005 3.176190587476e+005 3.176190587476e+005 3.176190587476e+005 3.176190587476e+005 3.176190587475e+005 3.176190587475e+005 3.176190587476e+005 3.153086633694e+005 3.153086633694e+005 3.153086633694e+005 3.153086633694e+005 3.153086633694e+005 3.153086633694e+005 3.153086633694e+005 3.153086633694e+005 3.153086633695e+005 3.129712459794e+005 3.129712459794e+005 3.129712459795e+005 3.129712459794e+005 3.129712459794e+005 3.129712459795e+005 3.129712459795e+005 3.129712459794e+005 3.129712459794e+005 3.106055872580e+005 3.106055872580e+005 3.106055872580e+005 3.106055872580e+005 3.106055872580e+005 3.106055872580e+005 3.106055872580e+005 3.106055872580e+005 3.106055872580e+005 3.082104032936e+005 3.082104032936e+005 3.082104032936e+005 3.082104032936e+005 3.082104032937e+005 3.082104032937e+005 3.082104032937e+005 3.082104032937e+005 3.082104032937e+005 3.057843408425e+005 3.057843408425e+005 3.057843408425e+005 3.057843408425e+005 3.057843408425e+005 3.057843408425e+005 3.057843408425e+005 3.057843408425e+005 3.057843408425e+005 3.033259720995e+005 3.033259720995e+005 3.033259720995e+005 3.033259720995e+005 3.033259720995e+005 3.033259720996e+005 3.033259720995e+005 3.033259720995e+005 3.033259720996e+005 3.008337889216e+005 3.008337889216e+005 3.008337889216e+005 3.008337889216e+005 3.008337889216e+005 3.008337889216e+005 3.008337889216e+005 3.008337889216e+005 3.008337889216e+005 2.983061964314e+005 2.983061964314e+005 2.983061964314e+005 2.983061964314e+005 2.983061964314e+005 2.983061964314e+005 2.983061964314e+005 2.983061964314e+005 2.983061964314e+005 2.957415059202e+005 2.957415059202e+005 2.957415059202e+005 2.957415059202e+005 2.957415059201e+005 2.957415059202e+005 2.957415059202e+005 2.957415059202e+005 2.957415059202e+005 2.931379269565e+005 2.931379269565e+005 2.931379269565e+005 2.931379269565e+005 2.931379269565e+005 2.931379269565e+005 2.931379269564e+005 2.931379269565e+005 2.931379269564e+005 2.904935585904e+005 2.904935585904e+005 2.904935585904e+005 2.904935585904e+005 2.904935585904e+005 2.904935585904e+005 2.904935585904e+005 2.904935585904e+005 2.904935585904e+005 2.878063795265e+005 2.878063795265e+005 2.878063795265e+005 2.878063795264e+005 2.878063795264e+005 2.878063795264e+005 2.878063795265e+005 2.878063795265e+005 2.878063795264e+005 2.850742371153e+005 2.850742371153e+005 2.850742371153e+005 2.850742371153e+005 2.850742371153e+005 2.850742371153e+005 2.850742371153e+005 2.850742371153e+005 2.850742371153e+005 2.822948349896e+005 2.822948349896e+005 2.822948349896e+005 2.822948349896e+005 2.822948349896e+005 2.822948349896e+005 2.822948349896e+005 2.822948349896e+005 2.822948349896e+005 2.794657191379e+005 2.794657191379e+005 2.794657191379e+005 2.794657191379e+005 2.794657191379e+005 2.794657191379e+005 2.794657191379e+005 2.794657191379e+005 2.794657191379e+005 2.765842621712e+005 2.765842621712e+005 2.765842621712e+005 2.765842621712e+005 2.765842621712e+005 2.765842621712e+005 2.765842621712e+005 2.765842621712e+005 2.765842621712e+005 2.736476454931e+005 2.736476454931e+005 2.736476454932e+005 2.736476454932e+005 2.736476454931e+005 2.736476454932e+005 2.736476454931e+005 2.736476454932e+005 2.736476454931e+005 2.706528390265e+005 2.706528390265e+005 2.706528390265e+005 2.706528390265e+005 2.706528390264e+005 2.706528390264e+005 2.706528390264e+005 2.706528390265e+005 2.706528390264e+005 2.675965780801e+005 2.675965780801e+005 2.675965780801e+005 2.675965780801e+005 2.675965780801e+005 2.675965780801e+005 2.675965780801e+005 2.675965780801e+005 2.675965780801e+005 2.644753368552e+005 2.644753368552e+005 2.644753368552e+005 2.644753368552e+005 2.644753368552e+005 2.644753368552e+005 2.644753368552e+005 2.644753368552e+005 2.644753368552e+005 2.612852979827e+005 2.612852979827e+005 2.612852979827e+005 2.612852979827e+005 2.612852979827e+005 2.612852979827e+005 2.612852979827e+005 2.612852979827e+005 2.612852979827e+005 2.580223173493e+005 2.580223173493e+005 2.580223173493e+005 2.580223173493e+005 2.580223173493e+005 2.580223173493e+005 2.580223173493e+005 2.580223173493e+005 2.580223173493e+005 2.546818833029e+005 2.546818833029e+005 2.546818833029e+005 2.546818833029e+005 2.546818833029e+005 2.546818833029e+005 2.546818833029e+005 2.546818833029e+005 2.546818833029e+005 2.512590691126e+005 2.512590691126e+005 2.512590691126e+005 2.512590691126e+005 2.512590691126e+005 2.512590691126e+005 2.512590691126e+005 2.512590691126e+005 2.512590691126e+005 2.477484772841e+005 2.477484772841e+005 2.477484772841e+005 2.477484772841e+005 2.477484772841e+005 2.477484772841e+005 2.477484772841e+005 2.477484772841e+005 2.477484772841e+005 2.441441739804e+005 2.441441739804e+005 2.441441739804e+005 2.441441739804e+005 2.441441739804e+005 2.441441739804e+005 2.441441739804e+005 2.441441739803e+005 2.441441739803e+005 2.404396113349e+005 2.404396113349e+005 2.404396113349e+005 2.404396113349e+005 2.404396113349e+005 2.404396113349e+005 2.404396113349e+005 2.404396113349e+005 2.404396113349e+005 2.366275348452e+005 2.366275348451e+005 2.366275348451e+005 2.366275348451e+005 2.366275348451e+005 2.366275348451e+005 2.366275348451e+005 2.366275348451e+005 2.366275348451e+005 2.326998722335e+005 2.326998722334e+005 2.326998722334e+005 2.326998722334e+005 2.326998722334e+005 2.326998722334e+005 2.326998722335e+005 2.326998722335e+005 2.326998722335e+005 2.286475990952e+005 2.286475990952e+005 2.286475990952e+005 2.286475990952e+005 2.286475990952e+005 2.286475990952e+005 2.286475990952e+005 2.286475990952e+005 2.286475990952e+005 2.244605752036e+005 2.244605752037e+005 2.244605752036e+005 2.244605752036e+005 2.244605752037e+005 2.244605752036e+005 2.244605752037e+005 2.244605752036e+005 2.244605752036e+005 2.201273433531e+005 2.201273433531e+005 2.201273433531e+005 2.201273433531e+005 2.201273433531e+005 2.201273433532e+005 2.201273433531e+005 2.201273433531e+005 2.201273433531e+005 2.156348798546e+005 2.156348798545e+005 2.156348798545e+005 2.156348798546e+005 2.156348798546e+005 2.156348798545e+005 2.156348798545e+005 2.156348798545e+005 2.156348798545e+005 2.109682818831e+005 2.109682818831e+005 2.109682818831e+005 2.109682818831e+005 2.109682818831e+005 2.109682818831e+005 2.109682818831e+005 2.109682818831e+005 2.109682818831e+005 2.061103712572e+005 2.061103712572e+005 2.061103712571e+005 2.061103712571e+005 2.061103712572e+005 2.061103712571e+005 2.061103712571e+005 2.061103712572e+005 2.061103712571e+005 2.010411860023e+005 2.010411860023e+005 2.010411860023e+005 2.010411860023e+005 2.010411860023e+005 2.010411860023e+005 2.010411860023e+005 2.010411860023e+005 2.010411860023e+005 1.957373187720e+005 1.957373187720e+005 1.957373187720e+005 1.957373187720e+005 1.957373187720e+005 1.957373187720e+005 1.957373187720e+005 1.957373187720e+005 1.957373187720e+005 1.901710424516e+005 1.901710424516e+005 1.901710424516e+005 1.901710424516e+005 1.901710424516e+005 1.901710424516e+005 1.901710424516e+005 1.901710424516e+005 1.901710424516e+005 1.843091339340e+005 1.843091339340e+005 1.843091339340e+005 1.843091339340e+005 1.843091339340e+005 1.843091339340e+005 1.843091339340e+005 1.843091339340e+005 1.843091339340e+005 1.781112598533e+005 1.781112598533e+005 1.781112598533e+005 1.781112598532e+005 1.781112598533e+005 1.781112598532e+005 1.781112598533e+005 1.781112598533e+005 1.781112598533e+005 1.715277097556e+005 1.715277097556e+005 1.715277097556e+005 1.715277097556e+005 1.715277097555e+005 1.715277097556e+005 1.715277097555e+005 1.715277097556e+005 1.715277097556e+005 1.644961278089e+005 1.644961278088e+005 1.644961278088e+005 1.644961278088e+005 1.644961278087e+005 1.644961278087e+005 1.644961278087e+005 1.644961278087e+005 1.644961278087e+005 1.569366545591e+005 1.569366545591e+005 1.569366545591e+005 1.569366545591e+005 1.569366545590e+005 1.569366545589e+005 1.569366545589e+005 1.569366545590e+005 1.569366545589e+005 1.487444431833e+005 1.487444431832e+005 1.487444431832e+005 1.487444431832e+005 1.487444431831e+005 1.487444431831e+005 1.487444431831e+005 1.487444431830e+005 1.487444431831e+005 1.397776318638e+005 1.397776318638e+005 1.397776318637e+005 1.397776318638e+005 1.397776318637e+005 1.397776318637e+005 1.397776318636e+005 1.397776318635e+005 1.397776318635e+005 1.298369776565e+005 1.298369776565e+005 1.298369776564e+005 1.298369776564e+005 1.298369776564e+005 1.298369776563e+005 1.298369776562e+005 1.298369776562e+005 1.298369776561e+005 1.186290249616e+005 1.186290249615e+005 1.186290249615e+005 1.186290249614e+005 1.186290249614e+005 1.186290249613e+005 1.186290249612e+005 1.186290249611e+005 1.186290249610e+005 1.056937770195e+005 1.056937770197e+005 1.056937770194e+005 1.056937770194e+005 1.056937770192e+005 1.056937770193e+005 1.056937770192e+005 1.056937770191e+005 1.056937770192e+005 9.024654138331e+004 9.024654138244e+004 9.024654138325e+004 9.024654138262e+004 9.024654138292e+004 9.024654138223e+004 9.024654138259e+004 9.024654138234e+004 9.024654138220e+004 7.077951081110e+004 7.077951081372e+004 7.077951081055e+004 7.077951081161e+004 7.077951080953e+004 7.077951081193e+004 7.077951080963e+004 7.077951080977e+004 7.077951080925e+004 4.388680032196e+004 4.388680031444e+004 4.388680032292e+004 4.388680031331e+004 4.388680032059e+004 4.388680031278e+004 4.388680031960e+004 4.388680031391e+004 4.388680031200e+004 2.120451225368e+003 2.120451256666e+003 2.120451222029e+003 2.120451246950e+003 2.120451215276e+003 2.120451246168e+003 2.120451223499e+003 2.120451231082e+003 2.120451224756e+003 -4.812283034415e+004 -4.812282768442e+004 -4.812282643944e+004 -4.812282783958e+004 -4.812282813423e+004 -4.812282863152e+004 -4.812282872139e+004 -4.812282902353e+004 -4.812282680469e+004 -9.834995309332e+004 -9.834995211604e+004 -9.834995093626e+004 -9.834995190575e+004 -9.834995259760e+004 -9.834995256313e+004 -9.834995281961e+004 -9.834995156787e+004 -9.834995152334e+004 -1.485615182543e+005 -1.485615163598e+005 -1.485615152495e+005 -1.485615156830e+005 -1.485615153008e+005 -1.485615139041e+005 -1.485615157254e+005 -1.485615151795e+005 -1.485615146509e+005 -1.987576070108e+005 -1.987576041656e+005 -1.987576035263e+005 -1.987576017491e+005 -1.987576019109e+005 -1.987576017049e+005 -1.987576020132e+005 -1.987576007123e+005 -1.987575999965e+005 -2.489383852959e+005 -2.489383843731e+005 -2.489383833715e+005 -2.489383820481e+005 -2.489383814952e+005 -2.489383806545e+005 -2.489383807957e+005 -2.489383794224e+005 -2.489383799513e+005 -2.991039887340e+005 -2.991039885916e+005 -2.991039864442e+005 -2.991039877710e+005 -2.991039855041e+005 -2.991039851039e+005 -2.991039848493e+005 -2.991039837227e+005 -2.991039826342e+005 -3.492545730195e+005 -3.492545720338e+005 -3.492545729838e+005 -3.492545707296e+005 -3.492545704291e+005 -3.492545692995e+005 -3.492545690907e+005 -3.492545689087e+005 -3.492545678396e+005 -3.993903156423e+005 -3.993903172244e+005 -3.993903165978e+005 -3.993903164344e+005 -3.993903150203e+005 -3.993903146070e+005 -3.993903137650e+005 -3.993903123796e+005 -3.993903117075e+005 -4.495114756272e+005 -4.495114775091e+005 -4.495114782470e+005 -4.495114767946e+005 -4.495114751957e+005 -4.495114753109e+005 -4.495114737496e+005 -4.495114724070e+005 -4.495114722529e+005 -4.996183555154e+005 -4.996183578531e+005 -4.996183577118e+005 -4.996183576853e+005 -4.996183567232e+005 -4.996183549574e+005 -4.996183537757e+005 -4.996183534855e+005 -4.996183528113e+005 -5.497113266178e+005 -5.497113246765e+005 -5.497113255426e+005 -5.497113254822e+005 -5.497113251740e+005 -5.497113226205e+005 -5.497113216032e+005 -5.497113224059e+005 -5.497113220776e+005 -5.997908088194e+005 -5.997908082543e+005 -5.997908080198e+005 -5.997908079272e+005 -5.997908069631e+005 -5.997908047309e+005 -5.997908053804e+005 -5.997908047519e+005 -5.997908050840e+005 -6.498572747282e+005 -6.498572739505e+005 -6.498572739040e+005 -6.498572724777e+005 -6.498572723286e+005 -6.498572712880e+005 -6.498572710125e+005 -6.498572704245e+005 -6.498572711339e+005 -6.999112153133e+005 -6.999112144129e+005 -6.999112147841e+005 -6.999112144187e+005 -6.999112132863e+005 -6.999112131697e+005 -6.999112125512e+005 -6.999112124829e+005 -6.999112112899e+005 -7.499531331922e+005 -7.499531338633e+005 -7.499531346393e+005 -7.499531341800e+005 -7.499531334457e+005 -7.499531337483e+005 -7.499531330999e+005 -7.499531331349e+005 -7.499531328621e+005 -7.999835369637e+005 -7.999835377343e+005 -7.999835382784e+005 -7.999835376949e+005 -7.999835376508e+005 -7.999835378744e+005 -7.999835370596e+005 -7.999835375912e+005 -7.999835376613e+005 -8.500029289319e+005 -8.500029290461e+005 -8.500029293897e+005 -8.500029295163e+005 -8.500029283744e+005 -8.500029282149e+005 -8.500029285199e+005 -8.500029287852e+005 -8.500029286285e+005 -9.000118057416e+005 -9.000118065639e+005 -9.000118071958e+005 -9.000118071235e+005 -9.000118068201e+005 -9.000118061424e+005 -9.000118061423e+005 -9.000118063127e+005 -9.000118064249e+005 -9.500106660487e+005 -9.500106664804e+005 -9.500106667322e+005 -9.500106665824e+005 -9.500106666759e+005 -9.500106662172e+005 -9.500106662169e+005 -9.500106663807e+005 -9.500106662230e+005 -1.000000000000e+006 -1.000000000000e+006 -1.000000000000e+006 -1.000000000000e+006 -1.000000000000e+006 -1.000000000000e+006 -1.000000000000e+006 -1.000000000000e+006 -1.000000000000e+006 
        </DataArray>
        <DataArray type="Float64" Name="NONWET_PRESSURE" format="ascii">