<?xml version="1.0"?>
<VTKFile type="UnstructuredGrid" version="0.1" byte_order="LittleEndian">
  <UnstructuredGrid>
    <Piece NumberOfPoints="909" NumberOfCells="800">
      <Points>
        <DataArray type="Float64" NumberOfComponents="3" format="ascii">
          0.000000000000e+000 0.000000000000e+000 0.000000000000e+000
          2.000000000000e+000 0.000000000000e+000 0.000000000000e+000
          2.000000000000e+000 2.500000000000e+000 0.000000000000e+000
          0.000000000000e+000 2.500000000000e+000 0.000000000000e+000
          2.000000000000e+000 5.000000000000e+000 0.000000000000e+000
          0.000000000000e+000 5.000000000000e+000 0.000000000000e+000
          2.000000000000e+000 7.500000000000e+000 0.000000000000e+000
          0.000000000000e+000 7.500000000000e+000 0.000000000000e+000
          2.000000000000e+000 1.000000000000e+001 0.000000000000e+000
          0.000000000000e+000 1.000000000000e+001 0.000000000000e+000
          2.000000000000e+000 1.250000000000e+001 0.000000000000e+000
          0.000000000000e+000 1.250000000000e+001 0.000000000000e+000
          2.000000000000e+000 1.500000000000e+001 0.000000000000e+000
          0.000000000000e+000 1.500000000000e+001 0.000000000000e+000
          2.000000000000e+000 1.750000000000e+001 0.000000000000e+000
          0.000000000000e+000 1.750000000000e+001 0.000000000000e+000
          2.000000000000e+000 2.000000000000e+001 0.000000000000e+000
          0.000000000000e+000 2.000000000000e+001 0.000000000000e+000
          4.000000000000e+000 0.000000000000e+000 0.000000000000e+000
          4.000000000000e+000 2.500000000000e+000 0.000000000000e+000
          4.000000000000e+000 5.000000000000e+000 0.000000000000e+000
          4.000000000000e+000 7.500000000000e+000 0.000000000000e+000
          4.000000000000e+000 1.000000000000e+001 0.000000000000e+000
          4.000000000000e+000 1.250000000000e+001 0.000000000000e+000
          4.000000000000e+000 1.500000000000e+001 0.000000000000e+000
          4.000000000000e+000 1.750000000000e+001 0.000000000000e+000
          4.000000000000e+000 2.000000000000e+001 0.000000000000e+000
          6.000000000000e+000 0.000000000000e+000 0.000000000000e+000
          6.000000000000e+000 2.500000000000e+000 0.000000000000e+000
          6.000000000000e+000 5.000000000000e+000 0.000000000000e+000
          6.000000000000e+000 7.500000000000e+000 0.000000000000e+000
          6.000000000000e+000 1.000000000000e+001 0.000000000000e+000
          6.000000000000e+000 1.250000000000e+001 0.000000000000e+000
          6.000000000000e+000 1.500000000000e+001 0.000000000000e+000
          6.000000000000e+000 1.750000000000e+001 0.000000000000e+000
          6.000000000000e+000 2.000000000000e+001 0.000000000000e+000
          8.000000000000e+000 0.000000000000e+000 0.000000000000e+000
          8.000000000000e+000 2.500000000000e+000 0.000000000000e+000
          8.000000000000e+000 5.000000000000e+000 0.000000000000e+000
          8.000000000000e+000 7.500000000000e+000 0.000000000000e+000
          8.000000000000e+000 1.000000000000e+001 0.000000000000e+000
          8.000000000000e+000 1.250000000000e+001 0.000000000000e+000
          8.000000000000e+000 1.500000000000e+001 0.000000000000e+000
          8.000000000000e+000 1.750000000000e+001 0.000000000000e+000
          8.000000000000e+000 2.000000000000e+001 0.000000000000e+000
          1.000000000000e+001 0.000000000000e+000 0.000000000000e+000
          1.000000000000e+001 2.500000000000e+000 0.000000000000e+000
          1.000000000000e+001 5.000000000000e+000 0.000000000000e+000
          1.000000000000e+001 7.500000000000e+000 0.000000000000e+000
          1.000000000000e+001 1.000000000000e+001 0.000000000000e+000
          1.000000000000e+001 1.250000000000e+001 0.000000000000e+000
          1.000000000000e+001 1.500000000000e+001 0.000000000000e+000
          1.000000000000e+001 1.750000000000e+001 0.000000000000e+000
          1.000000000000e+001 2.000000000000e+001 0.000000000000e+000
          1.200000000000e+001 0.000000000000e+000 0.000000000000e+000
          1.200000000000e+001 2.500000000000e+000 0.000000000000e+000
          1.200000000000e+001 5.000000000000e+000 0.000000000000e+000
          1.200000000000e+001 7.500000000000e+000 0.000000000000e+000
          1.200000000000e+001 1.000000000000e+001 0.000000000000e+000
          1.200000000000e+001 1.250000000000e+001 0.000000000000e+000
          1.200000000000e+001 1.500000000000e+001 0.000000000000e+000
          1.200000000000e+001 1.750000000000e+001 0.000000000000e+000
          1.200000000000e+001 2.000000000000e+001 0.000000000000e+000
          1.400000000000e+001 0.000000000000e+000 0.000000000000e+000
          1.400000000000e+001 2.500000000000e+000 0.000000000000e+000
          1.400000000000e+001 5.000000000000e+000 0.000000000000e+000
          1.400000000000e+001 7.500000000000e+000 0.000000000000e+000
          1.400000000000e+001 1.000000000000e+001 0.000000000000e+000
          1.400000000000e+001 1.250000000000e+001 0.000000000000e+000
          1.400000000000e+001 1.500000000000e+001 0.000000000000e+000
          1.400000000000e+001 1.750000000000e+001 0.000000000000e+000
          1.400000000000e+001 2.000000000000e+001 0.000000000000e+000
          1.600000000000e+001 0.000000000000e+000 0.000000000000e+000
          1.600000000000e+001 2.500000000000e+000 0.000000000000e+000
          1.600000000000e+001 5.000000000000e+000 0.000000000000e+000
          1.600000000000e+001 7.500000000000e+000 0.000000000000e+000
          1.600000000000e+001 1.000000000000e+001 0.000000000000e+000
          1.600000000000e+001 1.250000000000e+001 0.000000000000e+000
          1.600000000000e+001 1.500000000000e+001 0.000000000000e+000
          1.600000000000e+001 1.750000000000e+001 0.000000000000e+000
          1.600000000000e+001 2.000000000000e+001 0.000000000000e+000
          1.800000000000e+001 0.000000000000e+000 0.000000000000e+000
          1.800000000000e+001 2.500000000000e+000 0.000000000000e+000
          1.800000000000e+001 5.000000000000e+000 0.000000000000e+000
          1.800000000000e+001 7.500000000000e+000 0.000000000000e+000
          1.800000000000e+001 1.000000000000e+001 0.000000000000e+000
          1.800000000000e+001 1.250000000000e+001 0.000000000000e+000
          1.800000000000e+001 1.500000000000e+001 0.000000000000e+000
          1.800000000000e+001 1.750000000000e+001 0.000000000000e+000
          1.800000000000e+001 2.000000000000e+001 0.000000000000e+000
          2.000000000000e+001 0.000000000000e+000 0.000000000000e+000
          2.000000000000e+001 2.500000000000e+000 0.000000000000e+000
          2.000000000000e+001 5.000000000000e+000 0.000000000000e+000
          2.000000000000e+001 7.500000000000e+000 0.000000000000e+000
          2.000000000000e+001 1.000000000000e+001 0.000000000000e+000
          2.000000000000e+001 1.250000000000e+001 0.000000000000e+000
          2.000000000000e+001 1.500000000000e+001 0.000000000000e+000
          2.000000000000e+001 1.750000000000e+001 0.000000000000e+000
          2.000000000000e+001 2.000000000000e+001 0.000000000000e+000
          2.200000000000e+001 0.000000000000e+000 0.000000000000e+000
          2.200000000000e+001 2.500000000000e+000 0.000000000000e+000
          2.200000000000e+001 5.000000000000e+000 0.000000000000e+000
          2.200000000000e+001 7.500000000000e+000 0.000000000000e+000
          2.200000000000e+001 1.000000000000e+001 0.000000000000e+000
          2.200000000000e+001 1.250000000000e+001 0.000000000000e+000
          2.200000000000e+001 1.500000000000e+001 0.000000000000e+000
          2.200000000000e+001 1.750000000000e+001 0.000000000000e+000
          2.200000000000e+001 2.000000000000e+001 0.000000000000e+000
          2.400000000000e+001 0.000000000000e+000 0.000000000000e+000
          2.400000000000e+001 2.500000000000e+000 0.000000000000e+000
          2.400000000000e+001 5.000000000000e+000 0.000000000000e+000
          2.400000000000e+001 7.500000000000e+000 0.000000000000e+000
          2.400000000000e+001 1.000000000000e+001 0.000000000000e+000
          2.400000000000e+001 1.250000000000e+001 0.000000000000e+000
          2.400000000000e+001 1.500000000000e+001 0.000000000000e+000
          2.400000000000e+001 1.750000000000e+001 0.000000000000e+000
          2.400000000000e+001 2.000000000000e+001 0.000000000000e+000
          2.600000000000e+001 0.000000000000e+000 0.000000000000e+000
          2.600000000000e+001 2.500000000000e+000 0.000000000000e+000
          2.600000000000e+001 5.000000000000e+000 0.000000000000e+000
          2.600000000000e+001 7.500000000000e+000 0.000000000000e+000
          2.600000000000e+001 1.000000000000e+001 0.000000000000e+000
          2.600000000000e+001 1.250000000000e+001 0.000000000000e+000
          2.600000000000e+001 1.500000000000e+001 0.000000000000e+000
          2.600000000000e+001 1.750000000000e+001 0.000000000000e+000
          2.600000000000e+001 2.000000000000e+001 0.000000000000e+000
          2.800000000000e+001 0.000000000000e+000 0.000000000000e+000
          2.800000000000e+001 2.500000000000e+000 0.000000000000e+000
          2.800000000000e+001 5.000000000000e+000 0.000000000000e+000
          2.800000000000e+001 7.500000000000e+000 0.000000000000e+000
          2.800000000000e+001 1.000000000000e+001 0.000000000000e+000
          2.800000000000e+001 1.250000000000e+001 0.000000000000e+000
          2.800000000000e+001 1.500000000000e+001 0.000000000000e+000
          2.800000000000e+001 1.750000000000e+001 0.000000000000e+000
          2.800000000000e+001 2.000000000000e+001 0.000000000000e+000
          3.000000000000e+001 0.000000000000e+000 0.000000000000e+000
          3.000000000000e+001 2.500000000000e+000 0.000000000000e+000
          3.000000000000e+001 5.000000000000e+000 0.000000000000e+000
          3.000000000000e+001 7.500000000000e+000 0.000000000000e+000
[...]
      <PointData Scalars="CAPILLARY_PRESSURE">
        <DataArray type="Float64" Name="CAPILLARY_PRESSURE" format="ascii">
          2.657474353998e+005 2.625783913236e+005 2.625783913236e+005 2.657474353998e+005 2.625783913236e+005 2.657474353998e+005 2.625783913236e+005 2.657474353998e+005 2.625783913236e+005 2.657474353998e+005 2.625783913236e+005 2.657474353998e+005 2.625783913236e+005 2.657474353998e+005 2.625783913236e+005 2.657474353998e+005 2.625783913236e+005 2.657474353998e+005 2.594073728739e+005 2.594073728739e+005 2.594073728739e+005 2.594073728739e+005 2.594073728739e+005 2.594073728739e+005 2.594073728739e+005 2.594073728739e+005 2.594073728739e+005 2.562322165920e+005 2.562322165920e+005 2.562322165920e+005 2.562322165920e+005 2.562322165920e+005 2.562322165920e+005 2.562322165920e+005 2.562322165920e+005 2.562322165920e+005 2.530515409780e+005 2.530515409780e+005 2.530515409780e+005 2.530515409780e+005 2.530515409780e+005 2.530515409780e+005 2.530515409780e+005 2.530515409780e+005 2.530515409780e+005 2.498638455518e+005 2.498638455518e+005 2.498638455518e+005 2.498638455518e+005 2.498638455518e+005 2.498638455518e+005 2.498638455518e+005 2.498638455518e+005 2.498638455518e+005 2.466675188074e+005 2.466675188074e+005 2.466675188074e+005 2.466675188074e+005 2.466675188074e+005 2.466675188074e+005 2.466675188074e+005 2.466675188074e+005 2.466675188074e+005 2.434608324243e+005 2.434608324243e+005 2.434608324243e+005 2.434608324243e+005 2.434608324243e+005 2.434608324243e+005 2.434608324243e+005 2.434608324243e+005 2.434608324243e+005 2.402419328346e+005 2.402419328346e+005 2.402419328346e+005 2.402419328346e+005 2.402419328346e+005 2.402419328346e+005 2.402419328346e+005 2.402419328346e+005 2.402419328346e+005 2.370088330219e+005 2.370088330219e+005 2.370088330219e+005 2.370088330219e+005 2.370088330219e+005 2.370088330219e+005 2.370088330219e+005 2.370088330219e+005 2.370088330219e+005 2.337593981231e+005 2.337593981231e+005 2.337593981231e+005 2.337593981231e+005 2.337593981231e+005 2.337593981231e+005 2.337593981231e+005 2.337593981231e+005 2.337593981231e+005 2.304913307528e+005 2.304913307528e+005 2.304913307528e+005 2.304913307528e+005 2.304913307528e+005 2.304913307528e+005 2.304913307528e+005 2.304913307528e+005 2.304913307528e+005 2.272021540178e+005 2.272021540178e+005 2.272021540178e+005 2.272021540178e+005 2.272021540178e+005 2.272021540178e+005 2.272021540178e+005 2.272021540178e+005 2.272021540178e+005 2.238891919938e+005 2.238891919938e+005 2.238891919938e+005 2.238891919938e+005 2.238891919938e+005 2.238891919938e+005 2.238891919938e+005 2.238891919938e+005 2.238891919938e+005 2.205495472935e+005 2.205495472935e+005 2.205495472935e+005 2.205495472935e+005 2.205495472935e+005 2.205495472935e+005 2.205495472935e+005 2.205495472935e+005 2.205495472935e+005 2.171800752087e+005 2.171800752087e+005 2.171800752087e+005 2.171800752087e+005 2.171800752087e+005 2.171800752087e+005 2.171800752087e+005 2.171800752087e+005 2.171800752087e+005 2.137773537589e+005 2.137773537589e+005 2.137773537589e+005 2.137773537589e+005 2.137773537589e+005 2.137773537589e+005 2.137773537589e+005 2.137773537589e+005 2.137773537589e+005 2.103376488456e+005 2.103376488456e+005 2.103376488456e+005 2.103376488456e+005 2.103376488456e+005 2.103376488456e+005 2.103376488456e+005 2.103376488456e+005 2.103376488456e+005 2.068568735405e+005 2.068568735405e+005 2.068568735405e+005 2.068568735405e+005 2.068568735405e+005 2.068568735405e+005 2.068568735405e+005 2.068568735405e+005 2.068568735405e+005 2.033305402996e+005 2.033305402996e+005 2.033305402996e+005 2.033305402996e+005 2.033305402996e+005 2.033305402996e+005 2.033305402996e+005 2.033305402996e+005 2.033305402996e+005 1.997537045985e+005 1.997537045985e+005 1.997537045985e+005 1.997537045985e+005 1.997537045985e+005 1.997537045985e+005 1.997537045985e+005 1.997537045985e+005 1.997537045985e+005 1.961208980924e+005 1.961208980924e+005 1.961208980924e+005 1.961208980924e+005 1.961208980924e+005 1.961208980924e+005 1.961208980924e+005 1.961208980924e+005 1.961208980924e+005 1.924260488965e+005 1.924260488965e+005 1.924260488965e+005 1.924260488965e+005 1.924260488965e+005 1.924260488965e+005 1.924260488965e+005 1.924260488965e+005 1.924260488965e+005 1.886623859107e+005 1.886623859107e+005 1.886623859107e+005 1.886623859106e+005 1.886623859106e+005 1.886623859106e+005 1.886623859106e+005 1.886623859106e+005 1.886623859106e+005 1.848223232162e+005 1.848223232162e+005 1.848223232162e+005 1.848223232162e+005 1.848223232162e+005 1.848223232162e+005 1.848223232162e+005 1.848223232162e+005 1.848223232162e+005 1.808973193619e+005 1.808973193619e+005 1.808973193619e+005 1.808973193619e+005 1.808973193619e+005 1.808973193619e+005 1.808973193619e+005 1.808973193618e+005 1.808973193618e+005 1.768777047130e+005 1.768777047130e+005 1.768777047130e+005 1.768777047129e+005 1.768777047129e+005 1.768777047129e+005 1.768777047129e+005 1.768777047129e+005 1.768777047129e+005 1.727524677454e+005 1.727524677454e+005 1.727524677454e+005 1.727524677454e+005 1.727524677454e+005 1.727524677454e+005 1.727524677454e+005 1.727524677454e+005 1.727524677454e+005 1.685089879932e+005 1.685089879932e+005 1.685089879932e+005 1.685089879932e+005 1.685089879931e+005 1.685089879931e+005 1.685089879931e+005 1.685089879931e+005 1.685089879931e+005 1.641326986940e+005 1.641326986940e+005 1.641326986939e+005 1.641326986939e+005 1.641326986939e+005 1.641326986939e+005 1.641326986938e+005 1.641326986938e+005 1.641326986938e+005 1.596066556117e+005 1.596066556117e+005 1.596066556117e+005 1.596066556117e+005 1.596066556116e+005 1.596066556116e+005 1.596066556116e+005 1.596066556115e+005 1.596066556115e+005 1.549109791233e+005 1.549109791233e+005 1.549109791233e+005 1.549109791232e+005 1.549109791232e+005 1.549109791231e+005 1.549109791231e+005 1.549109791231e+005 1.549109791230e+005 1.500221181699e+005 1.500221181699e+005 1.500221181699e+005 1.500221181698e+005 1.500221181697e+005 1.500221181695e+005 1.500221181695e+005 1.500221181693e+005 1.500221181694e+005 1.449118776820e+005 1.449118776821e+005 1.449118776820e+005 1.449118776818e+005 1.449118776817e+005 1.449118776816e+005 1.449118776814e+005 1.449118776815e+005 1.449118776812e+005 1.395460693563e+005 1.395460693558e+005 1.395460693559e+005 1.395460693556e+005 1.395460693553e+005 1.395460693551e+005 1.395460693549e+005 1.395460693545e+005 1.395460693549e+005 1.338826840417e+005 1.338826840428e+005 1.338826840417e+005 1.338826840417e+005 1.338826840414e+005 1.338826840407e+005 1.338826840405e+005 1.338826840404e+005 1.338826840396e+005 1.278692338961e+005 1.278692338936e+005 1.278692338950e+005 1.278692338937e+005 1.278692338931e+005 1.278692338930e+005 1.278692338913e+005 1.278692338921e+005 1.278692338917e+005 1.214388490604e+005 1.214388490634e+005 1.214388490603e+005 1.214388490606e+005 1.214388490593e+005 1.214388490569e+005 1.214388490591e+005 1.214388490540e+005 1.214388490579e+005 1.145044880574e+005 1.145044880543e+005 1.145044880556e+005 1.145044880539e+005 1.145044880525e+005 1.145044880544e+005 1.145044880469e+005 1.145044880573e+005 1.145044880444e+005 1.069497513695e+005 1.069497513695e+005 1.069497513691e+005 1.069497513710e+005 1.069497513757e+005 1.069497513711e+005 1.069497513832e+005 1.069497513636e+005 1.069497513891e+005 9.861409790604e+004 9.861409791514e+004 9.861409791875e+004 9.861409791395e+004 9.861409790868e+004 9.861409791755e+004 9.861409790672e+004 9.861409793358e+004 9.861409789448e+004 8.926569572073e+004 8.926569572006e+004 8.926569570183e+004 8.926569573986e+004 8.926569574631e+004 8.926569575607e+004 8.926569576522e+004 8.926569574758e+004 8.926569579621e+004 7.855835575484e+004 7.855835570295e+004 7.855835577695e+004 7.855835574026e+004 7.855835579231e+004 7.855835579605e+004 7.855835582934e+004 7.855835584198e+004 7.855835581572e+004 6.593725783337e+004 6.593725806779e+004 6.593725797396e+004 6.593725788073e+004 6.593725765353e+004 6.593725763046e+004 6.593725751609e+004 6.593725752623e+004 6.593725745388e+004 5.044907239429e+004 5.044907186866e+004 5.044907181444e+004 5.044907205228e+004 5.044907225202e+004 5.044907208280e+004 5.044907217315e+004 5.044907209953e+004 5.044907225356e+004 3.040604995972e+004 3.040605014092e+004 3.040604977681e+004 3.040605021855e+004 3.040605055047e+004 3.040605050358e+004 3.040605059589e+004 3.040605060262e+004 3.040605095652e+004 3.599747125888e+003 3.599746979909e+003 3.599748045811e+003 3.599746706532e+003 3.599746103555e+003 3.599746915661e+003 3.599746623258e+003 3.599746673995e+003 3.599745299528e+003 -2.648816431543e+004 -2.648815859212e+004 -2.648815752131e+004 -2.648815362208e+004 -2.648815339749e+004 -2.648814824473e+004 -2.648814901866e+004 -2.648814568788e+004 -2.648814418719e+004 -5.597652310460e+004 -5.597652061834e+004 -5.597651584773e+004 -5.597651250581e+004 -5.597650524488e+004 -5.597650220934e+004 -5.597650381434e+004 -5.597649924414e+004 -5.597649649265e+004 -8.480008824599e+004 -8.480008677069e+004 -8.480008216218e+004 -8.480007564914e+004 -8.480007080476e+004 -8.480006813994e+004 -8.480006343195e+004 -8.480006198541e+004 -8.480005684827e+004 -1.129754832351e+005 -1.129754788439e+005 -1.129754772673e+005 -1.129754733581e+005 -1.129754689133e+005 -1.129754609440e+005 -1.129754558469e+005 -1.129754522639e+005 -1.129754529941e+005 -1.405202314796e+005 -1.405202295396e+005 -1.405202272566e+005 -1.405202237597e+005 -1.405202180294e+005 -1.405202090803e+005 -1.405202059564e+005 -1.405202009530e+005 -1.405202001649e+005 -1.674486792949e+005 -1.674486786492e+005 -1.674486767412e+005 -1.674486730829e+005 -1.674486688627e+005 -1.674486629868e+005 -1.674486600276e+005 -1.674486528673e+005 -1.674486569367e+005 -1.937758631322e+005 -1.937758588010e+005 -1.937758586781e+005 -1.937758577673e+005 -1.937758569740e+005 -1.937758502002e+005 -1.937758469451e+005 -1.937758445657e+005 -1.937758436110e+005 -2.195165755536e+005 -2.195165831190e+005 -2.195165800431e+005 -2.195165773781e+005 -2.195165772573e+005 -2.195165760937e+005 -2.195165706962e+005 -2.195165666341e+005 -2.195165648561e+005 -2.446854283834e+005 -2.446854309325e+005 -2.446854302319e+005 -2.446854250115e+005 -2.446854230793e+005 -2.446854217731e+005 -2.446854183523e+005 -2.446854189720e+005 -2.446854158585e+005 -2.692968029680e+005 -2.692968023041e+005 -2.692968008701e+005 -2.692967983964e+005 -2.692967971119e+005 -2.692967965342e+005 -2.692967928581e+005 -2.692967967851e+005 -2.692967933937e+005 -2.933649343110e+005 -2.933649350498e+005 -2.933649332488e+005 -2.933649297005e+005 -2.933649288979e+005 -2.933649297822e+005 -2.933649265361e+005 -2.933649273340e+005 -2.933649252513e+005 -3.169039273791e+005 -3.169039277751e+005 -3.169039258860e+005 -3.169039254246e+005 -3.169039234422e+005 -3.169039244564e+005 -3.169039230782e+005 -3.169039220867e+005 -3.169039242013e+005 -3.399277665438e+005 -3.399277679253e+005 -3.399277694080e+005 -3.399277692467e+005 -3.399277712535e+005 -3.399277673604e+005 -3.399277665064e+005 -3.399277676136e+005 -3.399277693767e+005 -3.624503308476e+005 -3.624503315807e+005 -3.624503353716e+005 -3.624503355461e+005 -3.624503343060e+005 -3.624503306961e+005 -3.624503321639e+005 -3.624503334405e+005 -3.624503345872e+005 -3.844853747975e+005 -3.844853781978e+005 -3.844853784463e+005 -3.844853778799e+005 -3.844853749270e+005 -3.844853757934e+005 -3.844853777958e+005 -3.844853751552e+005 -3.844853760194e+005 -4.060465336736e+005 -4.060465340158e+005 -4.060465339171e+005 -4.060465334330e+005 -4.060465325440e+005 -4.060465308257e+005 -4.060465333519e+005 -4.060465317070e+005 -4.060465314119e+005 -4.271473269127e+005 -4.271473238994e+005 -4.271473255937e+005 -4.271473246109e+005 -4.271473218061e+005 -4.271473230693e+005 -4.271473246935e+005 -4.271473240915e+005 -4.271473239424e+005 -4.478011552213e+005 -4.478011565377e+005 -4.478011566107e+005 -4.478011573218e+005 -4.478011537574e+005 -4.478011537574e+005 -4.478011570396e+005 -4.478011564330e+005 -4.478011549139e+005 -4.680213250621e+005 -4.680213261403e+005 -4.680213254487e+005 -4.680213242049e+005 -4.680213226548e+005 -4.680213236247e+005 -4.680213264937e+005 -4.680213261113e+005 -4.680213236255e+005 -4.878210166182e+005 -4.878210175948e+005 -4.878210173937e+005 -4.878210179876e+005 -4.878210150720e+005 -4.878210164905e+005 -4.878210186009e+005 -4.878210176126e+005 -4.878210159440e+005 -5.072133212348e+005 -5.072133222312e+005 -5.072133235270e+005 -5.072133208901e+005 -5.072133211205e+005 -5.072133222238e+005 -5.072133225464e+005 -5.072133235405e+005 -5.072133201252e+005 -5.262112310347e+005 -5.262112319328e+005 -5.262112314987e+005 -5.262112295202e+005 -5.262112315379e+005 -5.262112310833e+005 -5.262112302210e+005 -5.262112304829e+005 -5.262112298713e+005 -5.448276507492e+005 -5.448276499784e+005 -5.448276495494e+005 -5.448276491838e+005 -5.448276462929e+005 -5.448276464111e+005 -5.448276489268e+005 -5.448276476027e+005 -5.448276473708e+005 -5.630753943980e+005 -5.630753919160e+005 -5.630753916860e+005 -5.630753898804e+005 -5.630753881703e+005 -5.630753885460e+005 -5.630753909599e+005 -5.630753897481e+005 -5.630753907069e+005 -5.809671953781e+005 -5.809671946201e+005 -5.809671946080e+005 -5.809671937795e+005 -5.809671930030e+005 -5.809671929068e+005 -5.809671941251e+005 -5.809671945047e+005 -5.809671942571e+005 -5.985157148978e+005 -5.985157170846e+005 -5.985157175851e+005 -5.985157182969e+005 -5.985157168789e+005 -5.985157176378e+005 -5.985157189368e+005 -5.985157176446e+005 -5.985157168546e+005 -6.157335446786e+005 -6.157335425783e+005 -6.157335451519e+005 -6.157335453019e+005 -6.157335440087e+005 -6.157335463642e+005 -6.157335449528e+005 -6.157335451838e+005 -6.157335446442e+005 -6.326331886942e+005 -6.326331873308e+005 -6.326331871550e+005 -6.326331869035e+005 -6.326331865394e+005 -6.326331883804e+005 -6.326331880385e+005 -6.326331885541e+005 -6.326331866478e+005 -6.492270862304e+005 -6.492270895591e+005 -6.492270900120e+005 -6.492270898011e+005 -6.492270891765e+005 -6.492270907819e+005 -6.492270904733e+005 -6.492270906314e+005 -6.492270912234e+005 -6.655276278284e+005 -6.655276312484e+005 -6.655276303230e+005 -6.655276303550e+005 -6.655276333374e+005 -6.655276313965e+005 -6.655276327560e+005 -6.655276327851e+005 -6.655276330774e+005 -6.815471263147e+005 -6.815471278582e+005 -6.815471282933e+005 -6.815471272475e+005 -6.815471286027e+005 -6.815471290412e+005 -6.815471301846e+005 -6.815471287330e+005 -6.815471289685e+005 -6.972978356676e+005 -6.972978345359e+005 -6.972978347291e+005 -6.972978360336e+005 -6.972978346637e+005 -6.972978354874e+005 -6.972978355924e+005 -6.972978351480e+005 -6.972978347169e+005 -7.127919476933e+005 -7.127919488524e+005 -7.127919472617e+005 -7.127919478698e+005 -7.127919476893e+005 -7.127919484513e+005 -7.127919485328e+005 -7.127919474505e+005 -7.127919486814e+005 -7.280416089268e+005 -7.280416060005e+005 -7.280416053326e+005 -7.280416068068e+005 -7.280416059270e+005 -7.280416051735e+005 -7.280416057886e+005 -7.280416052520e+005 -7.280416066351e+005 -7.430588985186e+005 -7.430588954949e+005 -7.430588940178e+005 -7.430588953695e+005 -7.430588955073e+005 -7.430588958217e+005 -7.430588956445e+005 -7.430588961234e+005 -7.430588940458e+005 -7.578558526554e+005 -7.578558516037e+005 -7.578558502844e+005 -7.578558511454e+005 -7.578558517256e+005 -7.578558515524e+005 -7.578558517239e+005 -7.578558504784e+005 -7.578558504677e+005 -7.724444613796e+005 -7.724444594516e+005 -7.724444582648e+005 -7.724444586106e+005 -7.724444581369e+005 -7.724444566551e+005 -7.724444584188e+005 -7.724444578544e+005 -7.724444573245e+005 -7.868366599062e+005 -7.868366570426e+005 -7.868366563555e+005 -7.868366545151e+005 -7.868366546104e+005 -7.868366543448e+005 -7.868366546090e+005 -7.868366532863e+005 -7.868366525648e+005 -8.010443392216e+005 -8.010443382873e+005 -8.010443372543e+005 -8.010443358850e+005 -8.010443352854e+005 -8.010443344013e+005 -8.010443345086e+005 -8.010443331163e+005 -8.010443336391e+005 -8.150793552404e+005 -8.150793550895e+005 -8.150793529198e+005 -8.150793542156e+005 -8.150793519142e+005 -8.150793514826e+005 -8.150793512028e+005 -8.150793500610e+005 -8.150793489666e+005 -8.289535207103e+005 -8.289535197191e+005 -8.289535206537e+005 -8.289535183768e+005 -8.289535180522e+005 -8.289535168996e+005 -8.289535166721e+005 -8.289535164778e+005 -8.289535154042e+005 -8.426786100288e+005 -8.426786116069e+005 -8.426786109699e+005 -8.426786107904e+005 -8.426786093588e+005 -8.426786089289e+005 -8.426786080728e+005 -8.426786066780e+005 -8.426786060032e+005 -8.562663693833e+005 -8.562663712630e+005 -8.562663719936e+005 -8.562663705287e+005 -8.562663689184e+005 -8.562663690211e+005 -8.562663674497e+005 -8.562663661001e+005 -8.562663659432e+005 -8.697285075528e+005 -8.697285098894e+005 -8.697285097428e+005 -8.697285097089e+005 -8.697285087372e+005 -8.697285069628e+005 -8.697285057727e+005 -8.697285054775e+005 -8.697285048015e+005 -8.830767104906e+005 -8.830767085487e+005 -8.830767094109e+005 -8.830767093455e+005 -8.830767090308e+005 -8.830767064708e+005 -8.830767054477e+005 -8.830767062467e+005 -8.830767059164e+005 -8.963226275674e+005 -8.963226270011e+005 -8.963226267644e+005 -8.963226266680e+005 -8.963226256991e+005 -8.963226234626e+005 -8.963226241077e+005 -8.963226234764e+005 -8.963226238074e+005 -9.094778951962e+005 -9.094778944186e+005 -9.094778943704e+005 -9.094778929410e+005 -9.094778927892e+005 -9.094778917450e+005 -9.094778914668e+005 -9.094778908767e+005 -9.094778915852e+005 -9.225541233188e+005 -9.225541224180e+005 -9.225541227886e+005 -9.225541224213e+005 -9.225541212864e+005 -9.225541211673e+005 -9.225541205472e+005 -9.225541204774e+005 -9.225541192840e+005 -9.355629049989e+005 -9.355629056697e+005 -9.355629064451e+005 -9.355629059845e+005 -9.355629052483e+005 -9.355629055487e+005 -9.355629048993e+005 -9.355629049335e+005 -9.355629046603e+005 -9.485158217896e+005 -9.485158225603e+005 -9.485158231037e+005 -9.485158225191e+005 -9.485158224735e+005 -9.485158226956e+005 -9.485158218799e+005 -9.485158224113e+005 -9.485158224813e+005 -9.614244384166e+005 -9.614244385304e+005 -9.614244388740e+005 -9.614244389996e+005 -9.614244378566e+005 -9.614244376962e+005 -9.614244380006e+005 -9.614244382663e+005 -9.614244381088e+005 -9.743003077579e+005 -9.743003085802e+005 -9.743003092121e+005 -9.743003091394e+005 -9.743003088348e+005 -9.743003081564e+005 -9.743003081564e+005 -9.743003083265e+005 -9.743003084387e+005 -9.871549813428e+005 -9.871549817747e+005 -9.871549820265e+005 -9.871549818764e+005 -9.871549819696e+005 -9.871549815105e+005 -9.871549815102e+005 -9.871549816740e+005 -9.871549815161e+005 -1.000000000000e+006 -1.000000000000e+006 -1.000000000000e+006 -1.000000000000e+006 -1.000000000000e+006 -1.000000000000e+006 -1.000000000000e+006 -1.000000000000e+006 -1.000000000000e+006 
        </DataArray>
        <DataArray type="Float64" Name="NONWET_PRESSURE" format="ascii">