<?xml version="1.0"?>
<VTKFile type="UnstructuredGrid" version="0.1" byte_order="LittleEndian">
  <UnstructuredGrid>
    <Piece NumberOfPoints="909" NumberOfCells="800">
      <Points>
        <DataArray type="Float64" NumberOfComponents="3" format="ascii">
          0.000000000000e+000 0.000000000000e+000 0.000000000000e+000
          2.000000000000e+000 0.000000000000e+000 0.000000000000e+000
          2.000000000000e+000 2.500000000000e+000 0.000000000000e+000
          0.000000000000e+000 2.500000000000e+000 0.000000000000e+000
          2.000000000000e+000 5.000000000000e+000 0.000000000000e+000
          0.000000000000e+000 5.000000000000e+000 0.000000000000e+000
          2.000000000000e+000 7.500000000000e+000 0.000000000000e+000
          0.000000000000e+000 7.500000000000e+000 0.000000000000e+000
          2.000000000000e+000 1.000000000000e+001 0.000000000000e+000
          0.000000000000e+000 1.000000000000e+001 0.000000000000e+000
          2.000000000000e+000 1.250000000000e+001 0.000000000000e+000
          0.000000000000e+000 1.250000000000e+001 0.000000000000e+000
          2.000000000000e+000 1.500000000000e+001 0.000000000000e+000
          0.000000000000e+000 1.500000000000e+001 0.000000000000e+000
          2.000000000000e+000 1.750000000000e+001 0.000000000000e+000
          0.000000000000e+000 1.750000000000e+001 0.000000000000e+000
          2.000000000000e+000 2.000000000000e+001 0.000000000000e+000
          0.000000000000e+000 2.000000000000e+001 0.000000000000e+000
          4.000000000000e+000 0.000000000000e+000 0.000000000000e+000
          4.000000000000e+000 2.500000000000e+000 0.000000000000e+000
          4.000000000000e+000 5.000000000000e+000 0.000000000000e+000
          4.000000000000e+000 7.500000000000e+000 0.000000000000e+000
          4.000000000000e+000 1.000000000000e+001 0.000000000000e+000
          4.000000000000e+000 1.250000000000e+001 0.000000000000e+000
          4.000000000000e+000 1.500000000000e+001 0.000000000000e+000
          4.000000000000e+000 1.750000000000e+001 0.000000000000e+000
          4.000000000000e+000 2.000000000000e+001 0.000000000000e+000
          6.000000000000e+000 0.000000000000e+000 0.000000000000e+000
          6.000000000000e+000 2.500000000000e+000 0.000000000000e+000
          6.000000000000e+000 5.000000000000e+000 0.000000000000e+000
          6.000000000000e+000 7.500000000000e+000 0.000000000000e+000
          6.000000000000e+000 1.000000000000e+001 0.000000000000e+000
          6.000000000000e+000 1.250000000000e+001 0.000000000000e+000
          6.000000000000e+000 1.500000000000e+001 0.000000000000e+000
          6.000000000000e+000 1.750000000000e+001 0.000000000000e+000
          6.000000000000e+000 2.000000000000e+001 0.000000000000e+000
          8.000000000000e+000 0.000000000000e+000 0.000000000000e+000
          8.000000000000e+000 2.500000000000e+000 0.000000000000e+000
          8.000000000000e+000 5.000000000000e+000 0.000000000000e+000
          8.000000000000e+000 7.500000000000e+000 0.000000000000e+000
          8.000000000000e+000 1.000000000000e+001 0.000000000000e+000
          8.000000000000e+000 1.250000000000e+001 0.000000000000e+000
          8.000000000000e+000 1.500000000000e+001 0.000000000000e+000
          8.000000000000e+000 1.750000000000e+001 0.000000000000e+000
          8.000000000000e+000 2.000000000000e+001 0.000000000000e+000
          1.000000000000e+001 0.000000000000e+000 0.000000000000e+000
          1.000000000000e+001 2.500000000000e+000 0.000000000000e+000
          1.000000000000e+001 5.000000000000e+000 0.000000000000e+000
          1.000000000000e+001 7.500000000000e+000 0.000000000000e+000
          1.000000000000e+001 1.000000000000e+001 0.000000000000e+000
          1.000000000000e+001 1.250000000000e+001 0.000000000000e+000
          1.000000000000e+001 1.500000000000e+001 0.000000000000e+000
          1.000000000000e+001 1.750000000000e+001 0.000000000000e+000
          1.000000000000e+001 2.000000000000e+001 0.000000000000e+000
          1.200000000000e+001 0.000000000000e+000 0.000000000000e+000
          1.200000000000e+001 2.500000000000e+000 0.000000000000e+000
          1.200000000000e+001 5.000000000000e+000 0.000000000000e+000
          1.200000000000e+001 7.500000000000e+000 0.000000000000e+000
          1.200000000000e+001 1.000000000000e+001 0.000000000000e+000
          1.200000000000e+001 1.250000000000e+001 0.000000000000e+000
          1.200000000000e+001 1.500000000000e+001 0.000000000000e+000
          1.200000000000e+001 1.750000000000e+001 0.000000000000e+000
          1.200000000000e+001 2.000000000000e+001 0.000000000000e+000
          1.400000000000e+001 0.000000000000e+000 0.000000000000e+000
          1.400000000000e+001 2.500000000000e+000 0.000000000000e+000
          1.400000000000e+001 5.000000000000e+000 0.000000000000e+000
          1.400000000000e+001 7.500000000000e+000 0.000000000000e+000
          1.400000000000e+001 1.000000000000e+001 0.000000000000e+000
          1.400000000000e+001 1.250000000000e+001 0.000000000000e+000
          1.400000000000e+001 1.500000000000e+001 0.000000000000e+000
          1.400000000000e+001 1.750000000000e+001 0.000000000000e+000
          1.400000000000e+001 2.000000000000e+001 0.000000000000e+000
          1.600000000000e+001 0.000000000000e+000 0.000000000000e+000
          1.600000000000e+001 2.500000000000e+000 0.000000000000e+000
          1.600000000000e+001 5.000000000000e+000 0.000000000000e+000
          1.600000000000e+001 7.500000000000e+000 0.000000000000e+000
          1.600000000000e+001 1.000000000000e+001 0.000000000000e+000
          1.600000000000e+001 1.250000000000e+001 0.000000000000e+000
          1.600000000000e+001 1.500000000000e+001 0.000000000000e+000
          1.600000000000e+001 1.750000000000e+001 0.000000000000e+000
          1.600000000000e+001 2.000000000000e+001 0.000000000000e+000
          1.800000000000e+001 0.000000000000e+000 0.000000000000e+000
          1.800000000000e+001 2.500000000000e+000 0.000000000000e+000
          1.800000000000e+001 5.000000000000e+000 0.000000000000e+000
          1.800000000000e+001 7.500000000000e+000 0.000000000000e+000
          1.800000000000e+001 1.000000000000e+001 0.000000000000e+000
          1.800000000000e+001 1.250000000000e+001 0.000000000000e+000
          1.800000000000e+001 1.500000000000e+001 0.000000000000e+000
          1.800000000000e+001 1.750000000000e+001 0.000000000000e+000
          1.800000000000e+001 2.000000000000e+001 0.000000000000e+000
          2.000000000000e+001 0.000000000000e+000 0.000000000000e+000
          2.000000000000e+001 2.500000000000e+000 0.000000000000e+000
          2.000000000000e+001 5.000000000000e+000 0.000000000000e+000
          2.000000000000e+001 7.500000000000e+000 0.000000000000e+000
          2.000000000000e+001 1.000000000000e+001 0.000000000000e+000
          2.000000000000e+001 1.250000000000e+001 0.000000000000e+000
          2.000000000000e+001 1.500000000000e+001 0.000000000000e+000
          2.000000000000e+001 1.750000000000e+001 0.000000000000e+000
          2.000000000000e+001 2.000000000000e+001 0.000000000000e+000
          2.200000000000e+001 0.000000000000e+000 0.000000000000e+000
          2.200000000000e+001 2.500000000000e+000 0.000000000000e+000
          2.200000000000e+001 5.000000000000e+000 0.000000000000e+000
          2.200000000000e+001 7.500000000000e+000 0.000000000000e+000
          2.200000000000e+001 1.000000000000e+001 0.000000000000e+000
          2.200000000000e+001 1.250000000000e+001 0.000000000000e+000
          2.200000000000e+001 1.500000000000e+001 0.000000000000e+000
          2.200000000000e+001 1.750000000000e+001 0.000000000000e+000
          2.200000000000e+001 2.000000000000e+001 0.000000000000e+000
          2.400000000000e+001 0.000000000000e+000 0.000000000000e+000
          2.400000000000e+001 2.500000000000e+000 0.000000000000e+000
          2.400000000000e+001 5.000000000000e+000 0.000000000000e+000
          2.400000000000e+001 7.500000000000e+000 0.000000000000e+000
          2.400000000000e+001 1.000000000000e+001 0.000000000000e+000
          2.400000000000e+001 1.250000000000e+001 0.000000000000e+000
          2.400000000000e+001 1.500000000000e+001 0.000000000000e+000
          2.400000000000e+001 1.750000000000e+001 0.000000000000e+000
          2.400000000000e+001 2.000000000000e+001 0.000000000000e+000
          2.600000000000e+001 0.000000000000e+000 0.000000000000e+000
          2.600000000000e+001 2.500000000000e+000 0.000000000000e+000
          2.600000000000e+001 5.000000000000e+000 0.000000000000e+000
          2.600000000000e+001 7.500000000000e+000 0.000000000000e+000
          2.600000000000e+001 1.000000000000e+001 0.000000000000e+000
          2.600000000000e+001 1.250000000000e+001 0.000000000000e+000
          2.600000000000e+001 1.500000000000e+001 0.000000000000e+000
          2.600000000000e+001 1.750000000000e+001 0.000000000000e+000
          2.600000000000e+001 2.000000000000e+001 0.000000000000e+000
          2.800000000000e+001 0.000000000000e+000 0.000000000000e+000
          2.800000000000e+001 2.500000000000e+000 0.000000000000e+000
          2.800000000000e+001 5.000000000000e+000 0.000000000000e+000
          2.800000000000e+001 7.500000000000e+000 0.000000000000e+000
          2.800000000000e+001 1.000000000000e+001 0.000000000000e+000
          2.800000000000e+001 1.250000000000e+001 0.000000000000e+000
          2.800000000000e+001 1.500000000000e+001 0.000000000000e+000
          2.800000000000e+001 1.750000000000e+001 0.000000000000e+000
          2.800000000000e+001 2.000000000000e+001 0.000000000000e+000
          3.000000000000e+001 0.000000000000e+000 0.000000000000e+000
          3.000000000000e+001 2.500000000000e+000 0.000000000000e+000
          3.000000000000e+001 5.000000000000e+000 0.000000000000e+000
          3.000000000000e+001 7.500000000000e+000 0.000000000000e+000
[...]
      <PointData Scalars="CAPILLARY_PRESSURE">
        <DataArray type="Float64" Name="CAPILLARY_PRESSURE" format="ascii">
          2.410705258270e+005 2.372988632319e+005 2.372988632319e+005 2.410705258270e+005 2.372988632319e+005 2.410705258270e+005 2.372988632319e+005 2.410705258270e+005 2.372988632319e+005 2.410705258270e+005 2.372988632319e+005 2.410705258270e+005 2.372988632319e+005 2.410705258270e+005 2.372988632319e+005 2.410705258270e+005 2.372988632319e+005 2.410705258270e+005 2.335067579226e+005 2.335067579226e+005 2.335067579226e+005 2.335067579226e+005 2.335067579226e+005 2.335067579226e+005 2.335067579226e+005 2.335067579226e+005 2.335067579226e+005 2.296903947256e+005 2.296903947256e+005 2.296903947256e+005 2.296903947256e+005 2.296903947256e+005 2.296903947256e+005 2.296903947256e+005 2.296903947256e+005 2.296903947256e+005 2.258463644092e+005 2.258463644092e+005 2.258463644092e+005 2.258463644092e+005 2.258463644092e+005 2.258463644092e+005 2.258463644092e+005 2.258463644092e+005 2.258463644092e+005 2.219710801768e+005 2.219710801768e+005 2.219710801768e+005 2.219710801768e+005 2.219710801768e+005 2.219710801768e+005 2.219710801768e+005 2.219710801768e+005 2.219710801768e+005 2.180605849057e+005 2.180605849057e+005 2.180605849057e+005 2.180605849057e+005 2.180605849057e+005 2.180605849057e+005 2.180605849057e+005 2.180605849057e+005 2.180605849057e+005 2.141104963532e+005 2.141104963532e+005 2.141104963532e+005 2.141104963532e+005 2.141104963532e+005 2.141104963532e+005 2.141104963532e+005 2.141104963532e+005 2.141104963532e+005 2.101159555440e+005 2.101159555440e+005 2.101159555440e+005 2.101159555440e+005 2.101159555440e+005 2.101159555440e+005 2.101159555440e+005 2.101159555440e+005 2.101159555440e+005 2.060715668736e+005 2.060715668736e+005 2.060715668736e+005 2.060715668736e+005 2.060715668736e+005 2.060715668736e+005 2.060715668736e+005 2.060715668736e+005 2.060715668736e+005 2.019713239688e+005 2.019713239688e+005 2.019713239688e+005 2.019713239688e+005 2.019713239688e+005 2.019713239688e+005 2.019713239688e+005 2.019713239688e+005 2.019713239688e+005 1.978085196467e+005 1.978085196467e+005 1.978085196467e+005 1.978085196467e+005 1.978085196467e+005 1.978085196467e+005 1.978085196467e+005 1.978085196467e+005 1.978085196467e+005 1.935756354897e+005 1.935756354897e+005 1.935756354897e+005 1.935756354897e+005 1.935756354897e+005 1.935756354897e+005 1.935756354897e+005 1.935756354897e+005 1.935756354897e+005 1.892642060207e+005 1.892642060207e+005 1.892642060207e+005 1.892642060207e+005 1.892642060207e+005 1.892642060207e+005 1.892642060207e+005 1.892642060207e+005 1.892642060207e+005 1.848646512617e+005 1.848646512617e+005 1.848646512617e+005 1.848646512617e+005 1.848646512617e+005 1.848646512617e+005 1.848646512617e+005 1.848646512617e+005 1.848646512617e+005 1.803660687319e+005 1.803660687319e+005 1.803660687319e+005 1.803660687319e+005 1.803660687319e+005 1.803660687319e+005 1.803660687319e+005 1.803660687319e+005 1.803660687319e+005 1.757559727050e+005 1.757559727050e+005 1.757559727050e+005 1.757559727050e+005 1.757559727050e+005 1.757559727050e+005 1.757559727050e+005 1.757559727050e+005 1.757559727050e+005 1.710199639500e+005 1.710199639500e+005 1.710199639500e+005 1.710199639500e+005 1.710199639500e+005 1.710199639500e+005 1.710199639500e+005 1.710199639500e+005 1.710199639500e+005 1.661413063450e+005 1.661413063450e+005 1.661413063450e+005 1.661413063450e+005 1.661413063450e+005 1.661413063450e+005 1.661413063449e+005 1.661413063449e+005 1.661413063449e+005 1.611003766136e+005 1.611003766136e+005 1.611003766136e+005 1.611003766136e+005 1.611003766136e+005 1.611003766135e+005 1.611003766135e+005 1.611003766135e+005 1.611003766135e+005 1.558739383597e+005 1.558739383597e+005 1.558739383597e+005 1.558739383596e+005 1.558739383596e+005 1.558739383596e+005 1.558739383596e+005 1.558739383596e+005 1.558739383596e+005 1.504341689242e+005 1.504341689242e+005 1.504341689241e+005 1.504341689241e+005 1.504341689241e+005 1.504341689241e+005 1.504341689241e+005 1.504341689241e+005 1.504341689240e+005 1.447473328987e+005 1.447473328987e+005 1.447473328987e+005 1.447473328987e+005 1.447473328987e+005 1.447473328986e+005 1.447473328986e+005 1.447473328986e+005 1.447473328986e+005 1.387719403740e+005 1.387719403740e+005 1.387719403739e+005 1.387719403739e+005 1.387719403739e+005 1.387719403738e+005 1.387719403738e+005 1.387719403738e+005 1.387719403738e+005 1.324561335411e+005 1.324561335411e+005 1.324561335410e+005 1.324561335410e+005 1.324561335410e+005 1.324561335409e+005 1.324561335409e+005 1.324561335408e+005 1.324561335408e+005 1.257338739252e+005 1.257338739252e+005 1.257338739251e+005 1.257338739251e+005 1.257338739250e+005 1.257338739250e+005 1.257338739249e+005 1.257338739249e+005 1.257338739248e+005 1.185192044148e+005 1.185192044146e+005 1.185192044147e+005 1.185192044145e+005 1.185192044144e+005 1.185192044145e+005 1.185192044144e+005 1.185192044142e+005 1.185192044144e+005 1.106973138555e+005 1.106973138560e+005 1.106973138554e+005 1.106973138558e+005 1.106973138558e+005 1.106973138548e+005 1.106973138549e+005 1.106973138556e+005 1.106973138547e+005 1.021100510406e+005 1.021100510392e+005 1.021100510404e+005 1.021100510383e+005 1.021100510377e+005 1.021100510412e+005 1.021100510403e+005 1.021100510376e+005 1.021100510411e+005 9.253115264338e+004 9.253115264738e+004 9.253115264516e+004 9.253115265176e+004 9.253115265395e+004 9.253115263615e+004 9.253115263663e+004 9.253115264410e+004 9.253115262964e+004 8.162136434107e+004 8.162136432767e+004 8.162136432985e+004 8.162136430592e+004 8.162136428870e+004 8.162136435639e+004 8.162136435015e+004 8.162136431947e+004 8.162136437241e+004 6.884109457361e+004 6.884109463781e+004 6.884109465896e+004 6.884109475457e+004 6.884109481223e+004 6.884109449950e+004 6.884109447695e+004 6.884109456579e+004 6.884109436702e+004 5.328089537990e+004 5.328089511162e+004 5.328089504436e+004 5.328089468474e+004 5.328089443342e+004 5.328089556444e+004 5.328089561646e+004 5.328089526802e+004 5.328089595319e+004 3.324938728043e+004 3.324938837856e+004 3.324938854621e+004 3.324938984271e+004 3.324939069027e+004 3.324938666383e+004 3.324938640208e+004 3.324938755309e+004 3.324938519632e+004 6.337862508527e+003 6.337858036315e+003 6.337858608758e+003 6.337854498854e+003 6.337850862699e+003 6.337864076665e+003 6.337864013547e+003 6.337859321132e+003 6.337868183149e+003 -2.490824573208e+004 -2.490824913479e+004 -2.490823514578e+004 -2.490824802993e+004 -2.490824895194e+004 -2.490824295539e+004 -2.490822867482e+004 -2.490822964323e+004 -2.490823837900e+004 -5.542137714803e+004 -5.542136137541e+004 -5.542136540790e+004 -5.542136747786e+004 -5.542137139206e+004 -5.542135327830e+004 -5.542135711611e+004 -5.542134650097e+004 -5.542135122749e+004 -8.516501941799e+004 -8.516502450690e+004 -8.516502740862e+004 -8.516503406121e+004 -8.516502948010e+004 -8.516501578938e+004 -8.516501508904e+004 -8.516501173083e+004 -8.516500433591e+004 -1.141491631942e+005 -1.141491690157e+005 -1.141491709742e+005 -1.141491749442e+005 -1.141491707221e+005 -1.141491562072e+005 -1.141491515848e+005 -1.141491490909e+005 -1.141491456265e+005 -1.423915722440e+005 -1.423915658482e+005 -1.423915752982e+005 -1.423915731350e+005 -1.423915652622e+005 -1.423915565752e+005 -1.423915417428e+005 -1.423915487070e+005 -1.423915428920e+005 -1.699104983813e+005 -1.699104913971e+005 -1.699105001364e+005 -1.699104976721e+005 -1.699104901318e+005 -1.699104804233e+005 -1.699104740676e+005 -1.699104648165e+005 -1.699104681632e+005 -1.967234404923e+005 -1.967234416831e+005 -1.967234464027e+005 -1.967234436273e+005 -1.967234400933e+005 -1.967234232485e+005 -1.967234162460e+005 -1.967234177713e+005 -1.967234085573e+005 -2.228469752109e+005 -2.228469836275e+005 -2.228469775348e+005 -2.228469728677e+005 -2.228469707842e+005 -2.228469597254e+005 -2.228469489105e+005 -2.228469448788e+005 -2.228469426276e+005 -2.482968556074e+005 -2.482968402055e+005 -2.482968436471e+005 -2.482968341717e+005 -2.482968338248e+005 -2.482968268353e+005 -2.482968280609e+005 -2.482968070911e+005 -2.482968137088e+005 -2.730881143808e+005 -2.730881191789e+005 -2.730881137753e+005 -2.730881047862e+005 -2.730881026927e+005 -2.730881025146e+005 -2.730880914415e+005 -2.730880857062e+005 -2.730880821927e+005 -2.972353354825e+005 -2.972353397042e+005 -2.972353428786e+005 -2.972353282091e+005 -2.972353203236e+005 -2.972353209527e+005 -2.972353135255e+005 -2.972353097401e+005 -2.972353012650e+005 -3.207526850736e+005 -3.207526874200e+005 -3.207526840494e+005 -3.207526784731e+005 -3.207526708952e+005 -3.207526618406e+005 -3.207526561105e+005 -3.207526532761e+005 -3.207526551354e+005 -3.436540613938e+005 -3.436540552456e+005 -3.436540521974e+005 -3.436540437513e+005 -3.436540378628e+005 -3.436540273536e+005 -3.436540238523e+005 -3.436540181380e+005 -3.436540157965e+005 -3.659531380119e+005 -3.659531349453e+005 -3.659531283076e+005 -3.659531219245e+005 -3.659531108440e+005 -3.659531039702e+005 -3.659531024940e+005 -3.659530959991e+005 -3.659530926421e+005 -3.876634629653e+005 -3.876634610002e+005 -3.876634549643e+005 -3.876634461980e+005 -3.876634386139e+005 -3.876634332081e+005 -3.876634262283e+005 -3.876634233230e+005 -3.876634176798e+005 -4.087984501744e+005 -4.087984454147e+005 -4.087984427638e+005 -4.087984372109e+005 -4.087984307941e+005 -4.087984208474e+005 -4.087984140951e+005 -4.087984094251e+005 -4.087984097810e+005 -4.293714040682e+005 -4.293714018519e+005 -4.293713987775e+005 -4.293713940813e+005 -4.293713869247e+005 -4.293713765478e+005 -4.293713722190e+005 -4.293713664166e+005 -4.293713653488e+005 -4.493955219997e+005 -4.493955211511e+005 -4.493955186623e+005 -4.493955141301e+005 -4.493955088744e+005 -4.493955019613e+005 -4.493954981247e+005 -4.493954903803e+005 -4.493954942455e+005 -4.688838948754e+005 -4.688838903955e+005 -4.688838898481e+005 -4.688838883003e+005 -4.688838867537e+005 -4.688838792259e+005 -4.688838753320e+005 -4.688838725264e+005 -4.688838714221e+005 -4.878494963808e+005 -4.878495038375e+005 -4.878495004519e+005 -4.878494973225e+005 -4.878494966532e+005 -4.878494949408e+005 -4.878494890781e+005 -4.878494847053e+005 -4.878494828183e+005 -5.063052122501e+005 -5.063052147199e+005 -5.063052137935e+005 -5.063052082347e+005 -5.063052059032e+005 -5.063052041974e+005 -5.063052004378e+005 -5.063052008312e+005 -5.063051976383e+005 -5.242637768338e+005 -5.242637761122e+005 -5.242637745137e+005 -5.242637717935e+005 -5.242637702182e+005 -5.242637693497e+005 -5.242637654270e+005 -5.242637691892e+005 -5.242637657400e+005 -5.417378289429e+005 -5.417378296396e+005 -5.417378277188e+005 -5.417378239911e+005 -5.417378229768e+005 -5.417378236494e+005 -5.417378202239e+005 -5.417378209018e+005 -5.417378187770e+005 -5.587398969456e+005 -5.587398973111e+005 -5.587398953346e+005 -5.587398947427e+005 -5.587398926063e+005 -5.587398934664e+005 -5.587398919576e+005 -5.587398908788e+005 -5.587398929627e+005 -5.752823983979e+005 -5.752823997571e+005 -5.752824011764e+005 -5.752824009200e+005 -5.752824028147e+005 -5.752823988095e+005 -5.752823978605e+005 -5.752823989042e+005 -5.752824006449e+005 -5.913776553708e+005 -5.913776560877e+005 -5.913776598324e+005 -5.913776599378e+005 -5.913776586161e+005 -5.913776549246e+005 -5.913776563232e+005 -5.913776575536e+005 -5.913776586841e+005 -6.070378798733e+005 -6.070378832618e+005 -6.070378834766e+005 -6.070378828599e+005 -6.070378798477e+005 -6.070378806547e+005 -6.070378826068e+005 -6.070378799326e+005 -6.070378807849e+005 -6.222751838390e+005 -6.222751841726e+005 -6.222751840495e+005 -6.222751835287e+005 -6.222751825965e+005 -6.222751808350e+005 -6.222751833246e+005 -6.222751816552e+005 -6.222751813515e+005 -6.371015854567e+005 -6.371015824372e+005 -6.371015841137e+005 -6.371015831042e+005 -6.371015802680e+005 -6.371015814997e+005 -6.371015830973e+005 -6.371015824775e+005 -6.371015823221e+005 -6.515290070900e+005 -6.515290084018e+005 -6.515290084619e+005 -6.515290091536e+005 -6.515290055663e+005 -6.515290055435e+005 -6.515290088062e+005 -6.515290081867e+005 -6.515290066630e+005 -6.655692988389e+005 -6.655692999139e+005 -6.655692992128e+005 -6.655692979549e+005 -6.655692963881e+005 -6.655692973413e+005 -6.655693001962e+005 -6.655692998044e+005 -6.655692973153e+005 -6.792342044651e+005 -6.792342054393e+005 -6.792342052313e+005 -6.792342058150e+005 -6.792342028872e+005 -6.792342042936e+005 -6.792342063938e+005 -6.792342053986e+005 -6.792342037275e+005 -6.925353962547e+005 -6.925353972494e+005 -6.925353985402e+005 -6.925353958958e+005 -6.925353961174e+005 -6.925353972118e+005 -6.925353975269e+005 -6.925353985161e+005 -6.925353950990e+005 -7.054844619621e+005 -7.054844628590e+005 -7.054844624212e+005 -7.054844604373e+005 -7.054844624485e+005 -7.054844619875e+005 -7.054844611198e+005 -7.054844613780e+005 -7.054844607651e+005 -7.180929141724e+005 -7.180929134007e+005 -7.180929129691e+005 -7.180929125995e+005 -7.180929097039e+005 -7.180929098174e+005 -7.180929123292e+005 -7.180929110024e+005 -7.180929107695e+005 -7.303721848811e+005 -7.303721823984e+005 -7.303721821664e+005 -7.303721803580e+005 -7.303721786445e+005 -7.303721790168e+005 -7.303721814278e+005 -7.303721802141e+005 -7.303721811722e+005 -7.423336339121e+005 -7.423336331536e+005 -7.423336331401e+005 -7.423336323095e+005 -7.423336315305e+005 -7.423336314319e+005 -7.423336326481e+005 -7.423336330263e+005 -7.423336327782e+005 -7.539885561053e+005 -7.539885582918e+005 -7.539885587912e+005 -7.539885595015e+005 -7.539885580817e+005 -7.539885588388e+005 -7.539885601363e+005 -7.539885588430e+005 -7.539885580527e+005 -7.653481831483e+005 -7.653481810477e+005 -7.653481836206e+005 -7.653481837695e+005 -7.653481824750e+005 -7.653481848291e+005 -7.653481834167e+005 -7.653481836469e+005 -7.653481831071e+005 -7.764236647584e+005 -7.764236633949e+005 -7.764236632185e+005 -7.764236629661e+005 -7.764236626011e+005 -7.764236644412e+005 -7.764236640984e+005 -7.764236646135e+005 -7.764236627070e+005 -7.872260914262e+005 -7.872260947547e+005 -7.872260952073e+005 -7.872260949958e+005 -7.872260943704e+005 -7.872260959751e+005 -7.872260956659e+005 -7.872260958236e+005 -7.872260964155e+005 -7.977665102170e+005 -7.977665136369e+005 -7.977665127112e+005 -7.977665127428e+005 -7.977665157247e+005 -7.977665137832e+005 -7.977665151424e+005 -7.977665151711e+005 -7.977665154634e+005 -8.080558957756e+005 -8.080558973190e+005 -8.080558977539e+005 -8.080558967078e+005 -8.080558980627e+005 -8.080558985008e+005 -8.080558996438e+005 -8.080558981920e+005 -8.080558984275e+005 -8.181051692334e+005 -8.181051681017e+005 -8.181051682947e+005 -8.181051695990e+005 -8.181051682288e+005 -8.181051690523e+005 -8.181051691570e+005 -8.181051687125e+005 -8.181051682812e+005 -8.279251949555e+005 -8.279251961145e+005 -8.279251945237e+005 -8.279251951316e+005 -8.279251949509e+005 -8.279251957127e+005 -8.279251957941e+005 -8.279251947117e+005 -8.279251959425e+005 -8.375267975123e+005 -8.375267945860e+005 -8.375267939181e+005 -8.375267953921e+005 -8.375267945121e+005 -8.375267937585e+005 -8.375267943735e+005 -8.375267938368e+005 -8.375267952199e+005 -8.469207396192e+005 -8.469207365955e+005 -8.469207351183e+005 -8.469207364699e+005 -8.469207366077e+005 -8.469207369219e+005 -8.469207367447e+005 -8.469207372235e+005 -8.469207351459e+005 -8.561177465769e+005 -8.561177455253e+005 -8.561177442059e+005 -8.561177450668e+005 -8.561177456469e+005 -8.561177454736e+005 -8.561177456451e+005 -8.561177443996e+005 -8.561177443888e+005 -8.651285030729e+005 -8.651285011449e+005 -8.651284999581e+005 -8.651285003038e+005 -8.651284998301e+005 -8.651284983482e+005 -8.651285001119e+005 -8.651284995474e+005 -8.651284990175e+005 -8.739636444377e+005 -8.739636415740e+005 -8.739636408869e+005 -8.739636390464e+005 -8.739636391417e+005 -8.739636388760e+005 -8.739636391402e+005 -8.739636378175e+005 -8.739636370960e+005 -8.826337671420e+005 -8.826337662077e+005 -8.826337651747e+005 -8.826337638054e+005 -8.826337632057e+005 -8.826337623216e+005 -8.826337624289e+005 -8.826337610366e+005 -8.826337615594e+005 -8.911494378140e+005 -8.911494376631e+005 -8.911494354934e+005 -8.911494367892e+005 -8.911494344877e+005 -8.911494340561e+005 -8.911494337764e+005 -8.911494326345e+005 -8.911494315401e+005 -8.995211849688e+005 -8.995211839777e+005 -8.995211849122e+005 -8.995211826353e+005 -8.995211823107e+005 -8.995211811581e+005 -8.995211809306e+005 -8.995211807363e+005 -8.995211796627e+005 -9.077595036221e+005 -9.077595052002e+005 -9.077595045633e+005 -9.077595043837e+005 -9.077595029521e+005 -9.077595025221e+005 -9.077595016660e+005 -9.077595002712e+005 -9.077594995964e+005 -9.158748652026e+005 -9.158748670823e+005 -9.158748678129e+005 -9.158748663480e+005 -9.158748647376e+005 -9.158748648404e+005 -9.158748632689e+005 -9.158748619193e+005 -9.158748617624e+005 -9.238777081081e+005 -9.238777104447e+005 -9.238777102982e+005 -9.238777102642e+005 -9.238777092925e+005 -9.238777075181e+005 -9.238777063280e+005 -9.238777060328e+005 -9.238777053568e+005 -9.317784520298e+005 -9.317784500880e+005 -9.317784509502e+005 -9.317784508847e+005 -9.317784505700e+005 -9.317784480101e+005 -9.317784469870e+005 -9.317784477860e+005 -9.317784474557e+005 -9.395874839278e+005 -9.395874833615e+005 -9.395874831248e+005 -9.395874830284e+005 -9.395874820595e+005 -9.395874798230e+005 -9.395874804681e+005 -9.395874798368e+005 -9.395874801678e+005 -9.473151813840e+005 -9.473151806065e+005 -9.473151805582e+005 -9.473151791288e+005 -9.473151789770e+005 -9.473151779328e+005 -9.473151776547e+005 -9.473151770645e+005 -9.473151777730e+005 -9.549718988164e+005 -9.549718979156e+005 -9.549718982862e+005 -9.549718979189e+005 -9.549718967840e+005 -9.549718966649e+005 -9.549718960448e+005 -9.549718959750e+005 -9.549718947816e+005 -9.625679768009e+005 -9.625679774717e+005 -9.625679782471e+005 -9.625679777865e+005 -9.625679770504e+005 -9.625679773508e+005 -9.625679767014e+005 -9.625679767356e+005 -9.625679764623e+005 -9.701137471690e+005 -9.701137479397e+005 -9.701137484831e+005 -9.701137478984e+005 -9.701137478529e+005 -9.701137480750e+005 -9.701137472593e+005 -9.701137477906e+005 -9.701137478607e+005 -9.776195274342e+005 -9.776195275480e+005 -9.776195278916e+005 -9.776195280172e+005 -9.776195268742e+005 -9.776195267138e+005 -9.776195270182e+005 -9.776195272839e+005 -9.776195271264e+005 -9.850956254984e+005 -9.850956263207e+005 -9.850956269526e+005 -9.850956268799e+005 -9.850956265754e+005 -9.850956258970e+005 -9.850956258969e+005 -9.850956260671e+005 -9.850956261792e+005 -9.925523497850e+005 -9.925523502169e+005 -9.925523504688e+005 -9.925523503187e+005 -9.925523504119e+005 -9.925523499527e+005 -9.925523499524e+005 -9.925523501163e+005 -9.925523499584e+005 -1.000000000000e+006 -1.000000000000e+006 -1.000000000000e+006 -1.000000000000e+006 -1.000000000000e+006 -1.000000000000e+006 -1.000000000000e+006 -1.000000000000e+006 -1.000000000000e+006 
        </DataArray>
        <DataArray type="Float64" Name="NONWET_PRESSURE" format="ascii">