<?xml version="1.0"?>
<VTKFile type="UnstructuredGrid" version="0.1" byte_order="LittleEndian">
  <UnstructuredGrid>
    <Piece NumberOfPoints="909" NumberOfCells="800">
      <Points>
        <DataArray type="Float64" NumberOfComponents="3" format="ascii">
          0.000000000000e+000 0.000000000000e+000 0.000000000000e+000
          2.000000000000e+000 0.000000000000e+000 0.000000000000e+000
          2.000000000000e+000 2.500000000000e+000 0.000000000000e+000
          0.000000000000e+000 2.500000000000e+000 0.000000000000e+000
          2.000000000000e+000 5.000000000000e+000 0.000000000000e+000
          0.000000000000e+000 5.000000000000e+000 0.000000000000e+000
          2.000000000000e+000 7.500000000000e+000 0.000000000000e+000
          0.000000000000e+000 7.500000000000e+000 0.000000000000e+000
          2.000000000000e+000 1.000000000000e+001 0.000000000000e+000
          0.000000000000e+000 1.000000000000e+001 0.000000000000e+000
          2.000000000000e+000 1.250000000000e+001 0.000000000000e+000
          0.000000000000e+000 1.250000000000e+001 0.000000000000e+000
          2.000000000000e+000 1.500000000000e+001 0.000000000000e+000
          0.000000000000e+000 1.500000000000e+001 0.000000000000e+000
          2.000000000000e+000 1.750000000000e+001 0.000000000000e+000
          0.000000000000e+000 1.750000000000e+001 0.000000000000e+000
          2.000000000000e+000 2.000000000000e+001 0.000000000000e+000
          0.000000000000e+000 2.000000000000e+001 0.000000000000e+000
          4.000000000000e+000 0.000000000000e+000 0.000000000000e+000
          4.000000000000e+000 2.500000000000e+000 0.000000000000e+000
          4.000000000000e+000 5.000000000000e+000 0.000000000000e+000
          4.000000000000e+000 7.500000000000e+000 0.000000000000e+000
          4.000000000000e+000 1.000000000000e+001 0.000000000000e+000
          4.000000000000e+000 1.250000000000e+001 0.000000000000e+000
          4.000000000000e+000 1.500000000000e+001 0.000000000000e+000
          4.000000000000e+000 1.750000000000e+001 0.000000000000e+000
          4.000000000000e+000 2.000000000000e+001 0.000000000000e+000
          6.000000000000e+000 0.000000000000e+000 0.000000000000e+000
          6.000000000000e+000 2.500000000000e+000 0.000000000000e+000
          6.000000000000e+000 5.000000000000e+000 0.000000000000e+000
          6.000000000000e+000 7.500000000000e+000 0.000000000000e+000
          6.000000000000e+000 1.000000000000e+001 0.000000000000e+000
          6.000000000000e+000 1.250000000000e+001 0.000000000000e+000
          6.000000000000e+000 1.500000000000e+001 0.000000000000e+000
          6.000000000000e+000 1.750000000000e+001 0.000000000000e+000
          6.000000000000e+000 2.000000000000e+001 0.000000000000e+000
          8.000000000000e+000 0.000000000000e+000 0.000000000000e+000
          8.000000000000e+000 2.500000000000e+000 0.000000000000e+000
          8.000000000000e+000 5.000000000000e+000 0.000000000000e+000
          8.000000000000e+000 7.500000000000e+000 0.000000000000e+000
          8.000000000000e+000 1.000000000000e+001 0.000000000000e+000
          8.000000000000e+000 1.250000000000e+001 0.000000000000e+000
          8.000000000000e+000 1.500000000000e+001 0.000000000000e+000
          8.000000000000e+000 1.750000000000e+001 0.000000000000e+000
          8.000000000000e+000 2.000000000000e+001 0.000000000000e+000
          1.000000000000e+001 0.000000000000e+000 0.000000000000e+000
          1.000000000000e+001 2.500000000000e+000 0.000000000000e+000
          1.000000000000e+001 5.000000000000e+000 0.000000000000e+000
          1.000000000000e+001 7.500000000000e+000 0.000000000000e+000
          1.000000000000e+001 1.000000000000e+001 0.000000000000e+000
          1.000000000000e+001 1.250000000000e+001 0.000000000000e+000
          1.000000000000e+001 1.500000000000e+001 0.000000000000e+000
          1.000000000000e+001 1.750000000000e+001 0.000000000000e+000
          1.000000000000e+001 2.000000000000e+001 0.000000000000e+000
          1.200000000000e+001 0.000000000000e+000 0.000000000000e+000
          1.200000000000e+001 2.500000000000e+000 0.000000000000e+000
          1.200000000000e+001 5.000000000000e+000 0.000000000000e+000
          1.200000000000e+001 7.500000000000e+000 0.000000000000e+000
          1.200000000000e+001 1.000000000000e+001 0.000000000000e+000
          1.200000000000e+001 1.250000000000e+001 0.000000000000e+000
          1.200000000000e+001 1.500000000000e+001 0.000000000000e+000
          1.200000000000e+001 1.750000000000e+001 0.000000000000e+000
          1.200000000000e+001 2.000000000000e+001 0.000000000000e+000
          1.400000000000e+001 0.000000000000e+000 0.000000000000e+000
          1.400000000000e+001 2.500000000000e+000 0.000000000000e+000
          1.400000000000e+001 5.000000000000e+000 0.000000000000e+000
          1.400000000000e+001 7.500000000000e+000 0.000000000000e+000
          1.400000000000e+001 1.000000000000e+001 0.000000000000e+000
          1.400000000000e+001 1.250000000000e+001 0.000000000000e+000
          1.400000000000e+001 1.500000000000e+001 0.000000000000e+000
          1.400000000000e+001 1.750000000000e+001 0.000000000000e+000
          1.400000000000e+001 2.000000000000e+001 0.000000000000e+000
          1.600000000000e+001 0.000000000000e+000 0.000000000000e+000
          1.600000000000e+001 2.500000000000e+000 0.000000000000e+000
          1.600000000000e+001 5.000000000000e+000 0.000000000000e+000
          1.600000000000e+001 7.500000000000e+000 0.000000000000e+000
          1.600000000000e+001 1.000000000000e+001 0.000000000000e+000
          1.600000000000e+001 1.250000000000e+001 0.000000000000e+000
          1.600000000000e+001 1.500000000000e+001 0.000000000000e+000
          1.600000000000e+001 1.750000000000e+001 0.000000000000e+000
          1.600000000000e+001 2.000000000000e+001 0.000000000000e+000
          1.800000000000e+001 0.000000000000e+000 0.000000000000e+000
          1.800000000000e+001 2.500000000000e+000 0.000000000000e+000
          1.800000000000e+001 5.000000000000e+000 0.000000000000e+000
          1.800000000000e+001 7.500000000000e+000 0.000000000000e+000
          1.800000000000e+001 1.000000000000e+001 0.000000000000e+000
          1.800000000000e+001 1.250000000000e+001 0.000000000000e+000
          1.800000000000e+001 1.500000000000e+001 0.000000000000e+000
          1.800000000000e+001 1.750000000000e+001 0.000000000000e+000
          1.800000000000e+001 2.000000000000e+001 0.000000000000e+000
          2.000000000000e+001 0.000000000000e+000 0.000000000000e+000
          2.000000000000e+001 2.500000000000e+000 0.000000000000e+000
          2.000000000000e+001 5.000000000000e+000 0.000000000000e+000
          2.000000000000e+001 7.500000000000e+000 0.000000000000e+000
          2.000000000000e+001 1.000000000000e+001 0.000000000000e+000
          2.000000000000e+001 1.250000000000e+001 0.000000000000e+000
          2.000000000000e+001 1.500000000000e+001 0.000000000000e+000
          2.000000000000e+001 1.750000000000e+001 0.000000000000e+000
          2.000000000000e+001 2.000000000000e+001 0.000000000000e+000
          2.200000000000e+001 0.000000000000e+000 0.000000000000e+000
          2.200000000000e+001 2.500000000000e+000 0.000000000000e+000
          2.200000000000e+001 5.000000000000e+000 0.000000000000e+000
          2.200000000000e+001 7.500000000000e+000 0.000000000000e+000
          2.200000000000e+001 1.000000000000e+001 0.000000000000e+000
          2.200000000000e+001 1.250000000000e+001 0.000000000000e+000
          2.200000000000e+001 1.500000000000e+001 0.000000000000e+000
          2.200000000000e+001 1.750000000000e+001 0.000000000000e+000
          2.200000000000e+001 2.000000000000e+001 0.000000000000e+000
          2.400000000000e+001 0.000000000000e+000 0.000000000000e+000
          2.400000000000e+001 2.500000000000e+000 0.000000000000e+000
          2.400000000000e+001 5.000000000000e+000 0.000000000000e+000
          2.400000000000e+001 7.500000000000e+000 0.000000000000e+000
          2.400000000000e+001 1.000000000000e+001 0.000000000000e+000
          2.400000000000e+001 1.250000000000e+001 0.000000000000e+000
          2.400000000000e+001 1.500000000000e+001 0.000000000000e+000
          2.400000000000e+001 1.750000000000e+001 0.000000000000e+000
          2.400000000000e+001 2.000000000000e+001 0.000000000000e+000
          2.600000000000e+001 0.000000000000e+000 0.000000000000e+000
          2.600000000000e+001 2.500000000000e+000 0.000000000000e+000
          2.600000000000e+001 5.000000000000e+000 0.000000000000e+000
          2.600000000000e+001 7.500000000000e+000 0.000000000000e+000
          2.600000000000e+001 1.000000000000e+001 0.000000000000e+000
          2.600000000000e+001 1.250000000000e+001 0.000000000000e+000
          2.600000000000e+001 1.500000000000e+001 0.000000000000e+000
          2.600000000000e+001 1.750000000000e+001 0.000000000000e+000
          2.600000000000e+001 2.000000000000e+001 0.000000000000e+000
          2.800000000000e+001 0.000000000000e+000 0.000000000000e+000
          2.800000000000e+001 2.500000000000e+000 0.000000000000e+000
          2.800000000000e+001 5.000000000000e+000 0.000000000000e+000
          2.800000000000e+001 7.500000000000e+000 0.000000000000e+000
          2.800000000000e+001 1.000000000000e+001 0.000000000000e+000
          2.800000000000e+001 1.250000000000e+001 0.000000000000e+000
          2.800000000000e+001 1.500000000000e+001 0.000000000000e+000
          2.800000000000e+001 1.750000000000e+001 0.000000000000e+000
          2.800000000000e+001 2.000000000000e+001 0.000000000000e+000
          3.000000000000e+001 0.000000000000e+000 0.000000000000e+000
          3.000000000000e+001 2.500000000000e+000 0.000000000000e+000
          3.000000000000e+001 5.000000000000e+000 0.000000000000e+000
          3.000000000000e+001 7.500000000000e+000 0.000000000000e+000
[...]
      <PointData Scalars="CAPILLARY_PRESSURE">
        <DataArray type="Float64" Name="CAPILLARY_PRESSURE" format="ascii">
          1.788457117877e+005 1.724291285780e+005 1.724291285780e+005 1.788457117876e+005 1.724291285780e+005 1.788457117876e+005 1.724291285779e+005 1.788457117876e+005 1.724291285779e+005 1.788457117875e+005 1.724291285778e+005 1.788457117875e+005 1.724291285778e+005 1.788457117874e+005 1.724291285777e+005 1.788457117874e+005 1.724291285777e+005 1.788457117874e+005 1.657879304882e+005 1.657879304881e+005 1.657879304881e+005 1.657879304880e+005 1.657879304879e+005 1.657879304878e+005 1.657879304878e+005 1.657879304877e+005 1.657879304877e+005 1.588825369356e+005 1.588825369355e+005 1.588825369355e+005 1.588825369353e+005 1.588825369352e+005 1.588825369351e+005 1.588825369350e+005 1.588825369349e+005 1.588825369349e+005 1.516643601581e+005 1.516643601581e+005 1.516643601579e+005 1.516643601577e+005 1.516643601575e+005 1.516643601573e+005 1.516643601572e+005 1.516643601571e+005 1.516643601570e+005 1.440715272590e+005 1.440715272588e+005 1.440715272589e+005 1.440715272584e+005 1.440715272581e+005 1.440715272581e+005 1.440715272577e+005 1.440715272576e+005 1.440715272576e+005 1.360239849726e+005 1.360239849727e+005 1.360239849713e+005 1.360239849718e+005 1.360239849717e+005 1.360239849698e+005 1.360239849704e+005 1.360239849704e+005 1.360239849699e+005 1.274154967800e+005 1.274154967794e+005 1.274154967849e+005 1.274154967810e+005 1.274154967799e+005 1.274154967873e+005 1.274154967831e+005 1.274154967815e+005 1.274154967837e+005 1.181005966137e+005 1.181005966147e+005 1.181005965899e+005 1.181005966052e+005 1.181005966069e+005 1.181005965728e+005 1.181005965880e+005 1.181005965948e+005 1.181005965852e+005 1.078715471490e+005 1.078715471410e+005 1.078715472295e+005 1.078715471731e+005 1.078715471657e+005 1.078715472815e+005 1.078715472223e+005 1.078715471962e+005 1.078715472308e+005 9.642098225650e+004 9.642098232175e+004 9.642098207099e+004 9.642098223639e+004 9.642098225589e+004 9.642098194668e+004 9.642098213559e+004 9.642098219922e+004 9.642098209394e+004 8.325900211350e+004 8.325900182067e+004 8.325900247719e+004 8.325900217556e+004 8.325900224561e+004 8.325900289725e+004 8.325900236858e+004 8.325900220834e+004 8.325900242704e+004 6.755419124976e+004 6.755419220611e+004 6.755419071039e+004 6.755419132579e+004 6.755419088354e+004 6.755418971669e+004 6.755419089198e+004 6.755419120984e+004 6.755419085485e+004 4.770041457507e+004 4.770041188629e+004 4.770041520291e+004 4.770041378512e+004 4.770041523711e+004 4.770041708908e+004 4.770041462835e+004 4.770041413426e+004 4.770041473932e+004 2.065180918369e+004 2.065181555282e+004 2.065181090028e+004 2.065181315864e+004 2.065180852262e+004 2.065180930770e+004 2.065181191288e+004 2.065181176560e+004 2.065181175548e+004 -1.511130200090e+004 -1.511130042606e+004 -1.511131442708e+004 -1.511130939215e+004 -1.511130625281e+004 -1.511131436321e+004 -1.511131357017e+004 -1.511130650069e+004 -1.511130198415e+004 -5.144175144009e+004 -5.144175048631e+004 -5.144177030566e+004 -5.144176959579e+004 -5.144176530868e+004 -5.144176137071e+004 -5.144176754304e+004 -5.144175080253e+004 -5.144175024109e+004 -8.678405275807e+004 -8.678405022347e+004 -8.678406656982e+004 -8.678407322551e+004 -8.678407218577e+004 -8.678406723030e+004 -8.678406803135e+004 -8.678405897023e+004 -8.678404936967e+004 -1.211559186030e+005 -1.211559208421e+005 -1.211559306635e+005 -1.211559384316e+005 -1.211559439550e+005 -1.211559336820e+005 -1.211559213136e+005 -1.211559196215e+005 -1.211559261004e+005 -1.545727841623e+005 -1.545727891878e+005 -1.545727925622e+005 -1.545727908315e+005 -1.545727899979e+005 -1.545727849603e+005 -1.545727774898e+005 -1.545727711393e+005 -1.545727852748e+005 -1.870506777478e+005 -1.870506848961e+005 -1.870506826901e+005 -1.870506832803e+005 -1.870506835047e+005 -1.870506710485e+005 -1.870506692046e+005 -1.870506650431e+005 -1.870506687131e+005 -2.186055199543e+005 -2.186055166344e+005 -2.186055188094e+005 -2.186055122314e+005 -2.186055066913e+005 -2.186054907398e+005 -2.186055001576e+005 -2.186054942450e+005 -2.186054953442e+005 -2.492529434012e+005 -2.492529440658e+005 -2.492529358240e+005 -2.492529274222e+005 -2.492529189407e+005 -2.492529132450e+005 -2.492529089620e+005 -2.492529070717e+005 -2.492529066812e+005 -2.790083672994e+005 -2.790083397877e+005 -2.790083422055e+005 -2.790083308441e+005 -2.790083170446e+005 -2.790083155988e+005 -2.790083085164e+005 -2.790082971296e+005 -2.790083059691e+005 -3.078869120114e+005 -3.078869037357e+005 -3.078868894057e+005 -3.078868836394e+005 -3.078868717733e+005 -3.078868680406e+005 -3.078868675451e+005 -3.078868598221e+005 -3.078868690640e+005 -3.359036556983e+005 -3.359036399181e+005 -3.359036333326e+005 -3.359036261959e+005 -3.359036112233e+005 -3.359036072283e+005 -3.359036026423e+005 -3.359036115100e+005 -3.359036152963e+005 -3.630735161097e+005 -3.630735200008e+005 -3.630735163520e+005 -3.630735039507e+005 -3.630734944161e+005 -3.630734860800e+005 -3.630734856855e+005 -3.630734958287e+005 -3.630735018259e+005 -3.894115163109e+005 -3.894115066416e+005 -3.894114979219e+005 -3.894114846759e+005 -3.894114807205e+005 -3.894114843773e+005 -3.894114810027e+005 -3.894114777234e+005 -3.894114740509e+005 -4.149325952822e+005 -4.149325903973e+005 -4.149325754772e+005 -4.149325728284e+005 -4.149325672628e+005 -4.149325682259e+005 -4.149325624761e+005 -4.149325644036e+005 -4.149325603688e+005 -4.396518051541e+005 -4.396518016161e+005 -4.396517961090e+005 -4.396517966365e+005 -4.396517871127e+005 -4.396517941436e+005 -4.396517852973e+005 -4.396517832436e+005 -4.396517844636e+005 -4.635842287137e+005 -4.635842437149e+005 -4.635842315943e+005 -4.635842328106e+005 -4.635842348726e+005 -4.635842293317e+005 -4.635842254076e+005 -4.635842212358e+005 -4.635842259266e+005 -4.867449909355e+005 -4.867450017031e+005 -4.867450054367e+005 -4.867450064136e+005 -4.867450165601e+005 -4.867450011511e+005 -4.867449974646e+005 -4.867449881551e+005 -4.867449912076e+005 -5.091492176543e+005 -5.091492328667e+005 -5.091492251635e+005 -5.091492369838e+005 -5.091492418294e+005 -5.091492446761e+005 -5.091492339872e+005 -5.091492270895e+005 -5.091492191405e+005 -5.308120564805e+005 -5.308120673068e+005 -5.308120703538e+005 -5.308120749972e+005 -5.308120775444e+005 -5.308120827207e+005 -5.308120673054e+005 -5.308120523817e+005 -5.308120556332e+005 -5.517486375895e+005 -5.517486445979e+005 -5.517486481282e+005 -5.517486560582e+005 -5.517486614535e+005 -5.517486435662e+005 -5.517486363337e+005 -5.517486348461e+005 -5.517486226849e+005 -5.719740898688e+005 -5.719740941489e+005 -5.719740821578e+005 -5.719740967923e+005 -5.719740978508e+005 -5.719740896797e+005 -5.719740715101e+005 -5.719740688663e+005 -5.719740762057e+005 -5.915035155922e+005 -5.915035002274e+005 -5.915035051817e+005 -5.915035079726e+005 -5.915035116868e+005 -5.915034921472e+005 -5.915034937852e+005 -5.915034811841e+005 -5.915034851055e+005 -6.103519566322e+005 -6.103519619015e+005 -6.103519651910e+005 -6.103519720688e+005 -6.103519671899e+005 -6.103519525743e+005 -6.103519505778e+005 -6.103519460873e+005 -6.103519382466e+005 -6.285344910871e+005 -6.285344969784e+005 -6.285344990684e+005 -6.285345030456e+005 -6.285344985349e+005 -6.285344834020e+005 -6.285344779946e+005 -6.285344748410e+005 -6.285344711183e+005 -6.460660891947e+005 -6.460660828167e+005 -6.460660922816e+005 -6.460660900411e+005 -6.460660819218e+005 -6.460660728184e+005 -6.460660574978e+005 -6.460660640661e+005 -6.460660580989e+005 -6.629616568167e+005 -6.629616498281e+005 -6.629616585359e+005 -6.629616559724e+005 -6.629616482342e+005 -6.629616382397e+005 -6.629616315719e+005 -6.629616220764e+005 -6.629616253303e+005 -6.792360668421e+005 -6.792360680206e+005 -6.792360726951e+005 -6.792360698252e+005 -6.792360661376e+005 -6.792360490937e+005 -6.792360418863e+005 -6.792360432561e+005 -6.792360339840e+005 -6.949041193516e+005 -6.949041277544e+005 -6.949041216173e+005 -6.949041168697e+005 -6.949041146696e+005 -6.949041034705e+005 -6.949040925179e+005 -6.949040883848e+005 -6.949040860960e+005 -7.099805362337e+005 -7.099805208192e+005 -7.099805242225e+005 -7.099805146826e+005 -7.099805142482e+005 -7.099805071589e+005 -7.099805082903e+005 -7.099804872525e+005 -7.099804938455e+005 -7.244799168522e+005 -7.244799216399e+005 -7.244799162052e+005 -7.244799071660e+005 -7.244799050075e+005 -7.244799047581e+005 -7.244798936195e+005 -7.244798878378e+005 -7.244798843075e+005 -7.384168417207e+005 -7.384168459340e+005 -7.384168490844e+005 -7.384168343768e+005 -7.384168264432e+005 -7.384168270211e+005 -7.384168195477e+005 -7.384168157302e+005 -7.384168072435e+005 -7.518057512850e+005 -7.518057536250e+005 -7.518057502360e+005 -7.518057446311e+005 -7.518057370179e+005 -7.518057279264e+005 -7.518057221635e+005 -7.518057193066e+005 -7.518057211578e+005 -7.646609877326e+005 -7.646609815797e+005 -7.646609785176e+005 -7.646609700502e+005 -7.646609641359e+005 -7.646609535999e+005 -7.646609500753e+005 -7.646609443450e+005 -7.646609419979e+005 -7.769967604625e+005 -7.769967573922e+005 -7.769967507442e+005 -7.769967443455e+005 -7.769967332461e+005 -7.769967263528e+005 -7.769967248598e+005 -7.769967183536e+005 -7.769967149926e+005 -7.888271887318e+005 -7.888271867640e+005 -7.888271807206e+005 -7.888271719427e+005 -7.888271643447e+005 -7.888271589249e+005 -7.888271519330e+005 -7.888271490195e+005 -7.888271433735e+005 -8.001662561597e+005 -8.001662513981e+005 -8.001662487415e+005 -8.001662431802e+005 -8.001662367533e+005 -8.001662267964e+005 -8.001662200353e+005 -8.001662153595e+005 -8.001662157133e+005 -8.110278146424e+005 -8.110278124246e+005 -8.110278093461e+005 -8.110278046437e+005 -8.110277974798e+005 -8.110277870954e+005 -8.110277827603e+005 -8.110277769537e+005 -8.110277758844e+005 -8.214255768161e+005 -8.214255759665e+005 -8.214255734747e+005 -8.214255689379e+005 -8.214255636768e+005 -8.214255567583e+005 -8.214255529172e+005 -8.214255451698e+005 -8.214255490339e+005 -8.313731120839e+005 -8.313731076032e+005 -8.313731070537e+005 -8.313731055025e+005 -8.313731039521e+005 -8.313730964204e+005 -8.313730925231e+005 -8.313730897153e+005 -8.313730886102e+005 -8.408838327108e+005 -8.408838401670e+005 -8.408838367797e+005 -8.408838336480e+005 -8.408838329758e+005 -8.408838312606e+005 -8.408838253954e+005 -8.408838210210e+005 -8.408838191334e+005 -8.499710193641e+005 -8.499710218335e+005 -8.499710209059e+005 -8.499710153454e+005 -8.499710130118e+005 -8.499710113039e+005 -8.499710075426e+005 -8.499710079348e+005 -8.499710047415e+005 -8.586477526505e+005 -8.586477519286e+005 -8.586477503292e+005 -8.586477476078e+005 -8.586477460310e+005 -8.586477451610e+005 -8.586477412370e+005 -8.586477449984e+005 -8.586477415488e+005 -8.669269627104e+005 -8.669269634069e+005 -8.669269614854e+005 -8.669269577568e+005 -8.669269567414e+005 -8.669269574129e+005 -8.669269539864e+005 -8.669269546638e+005 -8.669269525387e+005 -8.748214072542e+005 -8.748214076195e+005 -8.748214056426e+005 -8.748214050501e+005 -8.748214029128e+005 -8.748214037722e+005 -8.748214022626e+005 -8.748214011835e+005 -8.748214032672e+005 -8.823436637824e+005 -8.823436651415e+005 -8.823436665604e+005 -8.823436663036e+005 -8.823436681977e+005 -8.823436641919e+005 -8.823436632424e+005 -8.823436642857e+005 -8.823436660264e+005 -8.895061375348e+005 -8.895061382516e+005 -8.895061419960e+005 -8.895061421011e+005 -8.895061407789e+005 -8.895061370870e+005 -8.895061384853e+005 -8.895061397154e+005 -8.895061408459e+005 -8.963210398400e+005 -8.963210432284e+005 -8.963210434431e+005 -8.963210428261e+005 -8.963210398136e+005 -8.963210406203e+005 -8.963210425721e+005 -8.963210398977e+005 -8.963210407500e+005 -9.028003914962e+005 -9.028003918298e+005 -9.028003917065e+005 -9.028003911856e+005 -9.028003902532e+005 -9.028003884914e+005 -9.028003909808e+005 -9.028003893114e+005 -9.028003890076e+005 -9.089560230471e+005 -9.089560200276e+005 -9.089560217039e+005 -9.089560206944e+005 -9.089560178579e+005 -9.089560190895e+005 -9.089560206870e+005 -9.089560200671e+005 -9.089560199117e+005 -9.147995672285e+005 -9.147995685404e+005 -9.147995686004e+005 -9.147995692920e+005 -9.147995657045e+005 -9.147995656816e+005 -9.147995689443e+005 -9.147995683247e+005 -9.147995668009e+005 -9.203424776387e+005 -9.203424787136e+005 -9.203424780125e+005 -9.203424767546e+005 -9.203424751876e+005 -9.203424761408e+005 -9.203424789956e+005 -9.203424786037e+005 -9.203424761146e+005 -9.255959903375e+005 -9.255959913117e+005 -9.255959911036e+005 -9.255959916872e+005 -9.255959887594e+005 -9.255959901657e+005 -9.255959922658e+005 -9.255959912706e+005 -9.255959895995e+005 -9.305711549312e+005 -9.305711559259e+005 -9.305711572166e+005 -9.305711545722e+005 -9.305711547937e+005 -9.305711558881e+005 -9.305711562032e+005 -9.305711571923e+005 -9.305711537752e+005 -9.352788182674e+005 -9.352788191643e+005 -9.352788187265e+005 -9.352788167426e+005 -9.352788187537e+005 -9.352788182927e+005 -9.352788174250e+005 -9.352788176831e+005 -9.352788170702e+005 -9.397296310635e+005 -9.397296302917e+005 -9.397296298601e+005 -9.397296294905e+005 -9.397296265949e+005 -9.397296267083e+005 -9.397296292201e+005 -9.397296278933e+005 -9.397296276604e+005 -9.439340402554e+005 -9.439340377727e+005 -9.439340375407e+005 -9.439340357322e+005 -9.439340340187e+005 -9.439340343911e+005 -9.439340368020e+005 -9.439340355883e+005 -9.439340365463e+005 -9.479022956818e+005 -9.479022949233e+005 -9.479022949098e+005 -9.479022940792e+005 -9.479022933002e+005 -9.479022932015e+005 -9.479022944177e+005 -9.479022947959e+005 -9.479022945478e+005 -9.516444560246e+005 -9.516444582111e+005 -9.516444587106e+005 -9.516444594208e+005 -9.516444580010e+005 -9.516444587581e+005 -9.516444600556e+005 -9.516444587623e+005 -9.516444579720e+005 -9.551703898760e+005 -9.551703877754e+005 -9.551703903482e+005 -9.551703904972e+005 -9.551703892027e+005 -9.551703915568e+005 -9.551703901444e+005 -9.551703903745e+005 -9.551703898347e+005 -9.584897566290e+005 -9.584897552654e+005 -9.584897550891e+005 -9.584897548367e+005 -9.584897544717e+005 -9.584897563118e+005 -9.584897559690e+005 -9.584897564841e+005 -9.584897545776e+005 -9.616120293961e+005 -9.616120327246e+005 -9.616120331772e+005 -9.616120329657e+005 -9.616120323403e+005 -9.616120339450e+005 -9.616120336359e+005 -9.616120337935e+005 -9.616120343855e+005 -9.645465114406e+005 -9.645465148604e+005 -9.645465139347e+005 -9.645465139663e+005 -9.645465169482e+005 -9.645465150068e+005 -9.645465163659e+005 -9.645465163946e+005 -9.645465166869e+005 -9.673023082548e+005 -9.673023097982e+005 -9.673023102331e+005 -9.673023091870e+005 -9.673023105419e+005 -9.673023109800e+005 -9.673023121230e+005 -9.673023106712e+005 -9.673023109067e+005 -9.698883479738e+005 -9.698883468421e+005 -9.698883470352e+005 -9.698883483394e+005 -9.698883469692e+005 -9.698883477927e+005 -9.698883478974e+005 -9.698883474529e+005 -9.698883470217e+005 -9.723133800449e+005 -9.723133812039e+005 -9.723133796132e+005 -9.723133802210e+005 -9.723133800403e+005 -9.723133808021e+005 -9.723133808835e+005 -9.723133798011e+005 -9.723133810320e+005 -9.745859945257e+005 -9.745859915995e+005 -9.745859909315e+005 -9.745859924055e+005 -9.745859915255e+005 -9.745859907720e+005 -9.745859913869e+005 -9.745859908502e+005 -9.745859922333e+005 -9.767146027375e+005 -9.767145997137e+005 -9.767145982366e+005 -9.767145995881e+005 -9.767145997259e+005 -9.767146000401e+005 -9.767145998629e+005 -9.767146003417e+005 -9.767145982641e+005 -9.787074647904e+005 -9.787074637387e+005 -9.787074624193e+005 -9.787074632802e+005 -9.787074638604e+005 -9.787074636871e+005 -9.787074638586e+005 -9.787074626130e+005 -9.787074626023e+005 -9.805726898261e+005 -9.805726878980e+005 -9.805726867113e+005 -9.805726870570e+005 -9.805726865833e+005 -9.805726851014e+005 -9.805726868650e+005 -9.805726863006e+005 -9.805726857707e+005 -9.823182310527e+005 -9.823182281891e+005 -9.823182275020e+005 -9.823182256615e+005 -9.823182257567e+005 -9.823182254911e+005 -9.823182257553e+005 -9.823182244326e+005 -9.823182237111e+005 -9.839519003435e+005 -9.839518994092e+005 -9.839518983762e+005 -9.839518970069e+005 -9.839518964072e+005 -9.839518955232e+005 -9.839518956305e+005 -9.839518942381e+005 -9.839518947609e+005 -9.854813816597e+005 -9.854813815088e+005 -9.854813793391e+005 -9.854813806349e+005 -9.854813783334e+005 -9.854813779018e+005 -9.854813776221e+005 -9.854813764802e+005 -9.854813753858e+005 -9.869142274742e+005 -9.869142264830e+005 -9.869142274176e+005 -9.869142251407e+005 -9.869142248160e+005 -9.869142236634e+005 -9.869142234359e+005 -9.869142232416e+005 -9.869142221680e+005 -9.882578683492e+005 -9.882578699273e+005 -9.882578692904e+005 -9.882578691108e+005 -9.882578676791e+005 -9.882578672492e+005 -9.882578663931e+005 -9.882578649983e+005 -9.882578643235e+005 -9.895196280663e+005 -9.895196299461e+005 -9.895196306767e+005 -9.895196292118e+005 -9.895196276014e+005 -9.895196277041e+005 -9.895196261327e+005 -9.895196247831e+005 -9.895196246262e+005 -9.907067196353e+005 -9.907067219720e+005 -9.907067218254e+005 -9.907067217914e+005 -9.907067208197e+005 -9.907067190453e+005 -9.907067178553e+005 -9.907067175600e+005 -9.907067168841e+005 -9.918262652887e+005 -9.918262633469e+005 -9.918262642091e+005 -9.918262641436e+005 -9.918262638289e+005 -9.918262612689e+005 -9.918262602459e+005 -9.918262610448e+005 -9.918262607145e+005 -9.928852883282e+005 -9.928852877619e+005 -9.928852875251e+005 -9.928852874288e+005 -9.928852864599e+005 -9.928852842234e+005 -9.928852848684e+005 -9.928852842371e+005 -9.928852845682e+005 -9.938907425301e+005 -9.938907417526e+005 -9.938907417043e+005 -9.938907402749e+005 -9.938907401231e+005 -9.938907390789e+005 -9.938907388008e+005 -9.938907382106e+005 -9.938907389191e+005 -9.948495045765e+005 -9.948495036757e+005 -9.948495040463e+005 -9.948495036790e+005 -9.948495025441e+005 -9.948495024250e+005 -9.948495018049e+005 -9.948495017351e+005 -9.948495005418e+005 -9.957683897405e+005 -9.957683904113e+005 -9.957683911867e+005 -9.957683907261e+005 -9.957683899899e+005 -9.957683902904e+005 -9.957683896410e+005 -9.957683896751e+005 -9.957683894019e+005 -9.966541634762e+005 -9.966541642470e+005 -9.966541647904e+005 -9.966541642057e+005 -9.966541641602e+005 -9.966541643823e+005 -9.966541635666e+005 -9.966541640979e+005 -9.966541641680e+005 -9.975135424506e+005 -9.975135425645e+005 -9.975135429081e+005 -9.975135430336e+005 -9.975135418906e+005 -9.975135417302e+005 -9.975135420346e+005 -9.975135423003e+005 -9.975135421428e+005 -9.983532059579e+005 -9.983532067802e+005 -9.983532074121e+005 -9.983532073394e+005 -9.983532070349e+005 -9.983532063565e+005 -9.983532063564e+005 -9.983532065266e+005 -9.983532066388e+005 -9.991798129363e+005 -9.991798133682e+005 -9.991798136201e+005 -9.991798134700e+005 -9.991798135631e+005 -9.991798131040e+005 -9.991798131037e+005 -9.991798132675e+005 -9.991798131096e+005 -1.000000000000e+006 -1.000000000000e+006 -1.000000000000e+006 -1.000000000000e+006 -1.000000000000e+006 -1.000000000000e+006 -1.000000000000e+006 -1.000000000000e+006 -1.000000000000e+006 
        </DataArray>
        <DataArray type="Float64" Name="NONWET_PRESSURE" format="ascii">