<?xml version="1.0"?>
<VTKFile type="UnstructuredGrid" version="0.1" byte_order="LittleEndian">
  <UnstructuredGrid>
    <Piece NumberOfPoints="909" NumberOfCells="800">
      <Points>
        <DataArray type="Float64" NumberOfComponents="3" format="ascii">
          0.000000000000e+000 0.000000000000e+000 0.000000000000e+000
          2.000000000000e+000 0.000000000000e+000 0.000000000000e+000
          2.000000000000e+000 2.500000000000e+000 0.000000000000e+000
          0.000000000000e+000 2.500000000000e+000 0.000000000000e+000
          2.000000000000e+000 5.000000000000e+000 0.000000000000e+000
          0.000000000000e+000 5.000000000000e+000 0.000000000000e+000
          2.000000000000e+000 7.500000000000e+000 0.000000000000e+000
          0.000000000000e+000 7.500000000000e+000 0.000000000000e+000
          2.000000000000e+000 1.000000000000e+001 0.000000000000e+000
          0.000000000000e+000 1.000000000000e+001 0.000000000000e+000
          2.000000000000e+000 1.250000000000e+001 0.000000000000e+000
          0.000000000000e+000 1.250000000000e+001 0.000000000000e+000
          2.000000000000e+000 1.500000000000e+001 0.000000000000e+000
          0.000000000000e+000 1.500000000000e+001 0.000000000000e+000
          2.000000000000e+000 1.750000000000e+001 0.000000000000e+000
          0.000000000000e+000 1.750000000000e+001 0.000000000000e+000
          2.000000000000e+000 2.000000000000e+001 0.000000000000e+000
          0.000000000000e+000 2.000000000000e+001 0.000000000000e+000
          4.000000000000e+000 0.000000000000e+000 0.000000000000e+000
          4.000000000000e+000 2.500000000000e+000 0.000000000000e+000
          4.000000000000e+000 5.000000000000e+000 0.000000000000e+000
          4.000000000000e+000 7.500000000000e+000 0.000000000000e+000
          4.000000000000e+000 1.000000000000e+001 0.000000000000e+000
          4.000000000000e+000 1.250000000000e+001 0.000000000000e+000
          4.000000000000e+000 1.500000000000e+001 0.000000000000e+000
          4.000000000000e+000 1.750000000000e+001 0.000000000000e+000
          4.000000000000e+000 2.000000000000e+001 0.000000000000e+000
          6.000000000000e+000 0.000000000000e+000 0.000000000000e+000
          6.000000000000e+000 2.500000000000e+000 0.000000000000e+000
          6.000000000000e+000 5.000000000000e+000 0.000000000000e+000
          6.000000000000e+000 7.500000000000e+000 0.000000000000e+000
          6.000000000000e+000 1.000000000000e+001 0.000000000000e+000
          6.000000000000e+000 1.250000000000e+001 0.000000000000e+000
          6.000000000000e+000 1.500000000000e+001 0.000000000000e+000
          6.000000000000e+000 1.750000000000e+001 0.000000000000e+000
          6.000000000000e+000 2.000000000000e+001 0.000000000000e+000
          8.000000000000e+000 0.000000000000e+000 0.000000000000e+000
          8.000000000000e+000 2.500000000000e+000 0.000000000000e+000
          8.000000000000e+000 5.000000000000e+000 0.000000000000e+000
          8.000000000000e+000 7.500000000000e+000 0.000000000000e+000
          8.000000000000e+000 1.000000000000e+001 0.000000000000e+000
          8.000000000000e+000 1.250000000000e+001 0.000000000000e+000
          8.000000000000e+000 1.500000000000e+001 0.000000000000e+000
          8.000000000000e+000 1.750000000000e+001 0.000000000000e+000
          8.000000000000e+000 2.000000000000e+001 0.000000000000e+000
          1.000000000000e+001 0.000000000000e+000 0.000000000000e+000
          1.000000000000e+001 2.500000000000e+000 0.000000000000e+000
          1.000000000000e+001 5.000000000000e+000 0.000000000000e+000
          1.000000000000e+001 7.500000000000e+000 0.000000000000e+000
          1.000000000000e+001 1.000000000000e+001 0.000000000000e+000
          1.000000000000e+001 1.250000000000e+001 0.000000000000e+000
          1.000000000000e+001 1.500000000000e+001 0.000000000000e+000
          1.000000000000e+001 1.750000000000e+001 0.000000000000e+000
          1.000000000000e+001 2.000000000000e+001 0.000000000000e+000
          1.200000000000e+001 0.000000000000e+000 0.000000000000e+000
          1.200000000000e+001 2.500000000000e+000 0.000000000000e+000
          1.200000000000e+001 5.000000000000e+000 0.000000000000e+000
          1.200000000000e+001 7.500000000000e+000 0.000000000000e+000
          1.200000000000e+001 1.000000000000e+001 0.000000000000e+000
          1.200000000000e+001 1.250000000000e+001 0.000000000000e+000
          1.200000000000e+001 1.500000000000e+001 0.000000000000e+000
          1.200000000000e+001 1.750000000000e+001 0.000000000000e+000
          1.200000000000e+001 2.000000000000e+001 0.000000000000e+000
          1.400000000000e+001 0.000000000000e+000 0.000000000000e+000
          1.400000000000e+001 2.500000000000e+000 0.000000000000e+000
          1.400000000000e+001 5.000000000000e+000 0.000000000000e+000
          1.400000000000e+001 7.500000000000e+000 0.000000000000e+000
          1.400000000000e+001 1.000000000000e+001 0.000000000000e+000
          1.400000000000e+001 1.250000000000e+001 0.000000000000e+000
          1.400000000000e+001 1.500000000000e+001 0.000000000000e+000
          1.400000000000e+001 1.750000000000e+001 0.000000000000e+000
          1.400000000000e+001 2.000000000000e+001 0.000000000000e+000
          1.600000000000e+001 0.000000000000e+000 0.000000000000e+000
          1.600000000000e+001 2.500000000000e+000 0.000000000000e+000
          1.600000000000e+001 5.000000000000e+000 0.000000000000e+000
          1.600000000000e+001 7.500000000000e+000 0.000000000000e+000
          1.600000000000e+001 1.000000000000e+001 0.000000000000e+000
          1.600000000000e+001 1.250000000000e+001 0.000000000000e+000
          1.600000000000e+001 1.500000000000e+001 0.000000000000e+000
          1.600000000000e+001 1.750000000000e+001 0.000000000000e+000
          1.600000000000e+001 2.000000000000e+001 0.000000000000e+000
          1.800000000000e+001 0.000000000000e+000 0.000000000000e+000
          1.800000000000e+001 2.500000000000e+000 0.000000000000e+000
          1.800000000000e+001 5.000000000000e+000 0.000000000000e+000
          1.800000000000e+001 7.500000000000e+000 0.000000000000e+000
          1.800000000000e+001 1.000000000000e+001 0.000000000000e+000
          1.800000000000e+001 1.250000000000e+001 0.000000000000e+000
          1.800000000000e+001 1.500000000000e+001 0.000000000000e+000
          1.800000000000e+001 1.750000000000e+001 0.000000000000e+000
          1.800000000000e+001 2.000000000000e+001 0.000000000000e+000
          2.000000000000e+001 0.000000000000e+000 0.000000000000e+000
          2.000000000000e+001 2.500000000000e+000 0.000000000000e+000
          2.000000000000e+001 5.000000000000e+000 0.000000000000e+000
          2.000000000000e+001 7.500000000000e+000 0.000000000000e+000
          2.000000000000e+001 1.000000000000e+001 0.000000000000e+000
          2.000000000000e+001 1.250000000000e+001 0.000000000000e+000
          2.000000000000e+001 1.500000000000e+001 0.000000000000e+000
          2.000000000000e+001 1.750000000000e+001 0.000000000000e+000
          2.000000000000e+001 2.000000000000e+001 0.000000000000e+000
          2.200000000000e+001 0.000000000000e+000 0.000000000000e+000
          2.200000000000e+001 2.500000000000e+000 0.000000000000e+000
          2.200000000000e+001 5.000000000000e+000 0.000000000000e+000
          2.200000000000e+001 7.500000000000e+000 0.000000000000e+000
          2.200000000000e+001 1.000000000000e+001 0.000000000000e+000
          2.200000000000e+001 1.250000000000e+001 0.000000000000e+000
          2.200000000000e+001 1.500000000000e+001 0.000000000000e+000
          2.200000000000e+001 1.750000000000e+001 0.000000000000e+000
          2.200000000000e+001 2.000000000000e+001 0.000000000000e+000
          2.400000000000e+001 0.000000000000e+000 0.000000000000e+000
          2.400000000000e+001 2.500000000000e+000 0.000000000000e+000
          2.400000000000e+001 5.000000000000e+000 0.000000000000e+000
          2.400000000000e+001 7.500000000000e+000 0.000000000000e+000
          2.400000000000e+001 1.000000000000e+001 0.000000000000e+000
          2.400000000000e+001 1.250000000000e+001 0.000000000000e+000
          2.400000000000e+001 1.500000000000e+001 0.000000000000e+000
          2.400000000000e+001 1.750000000000e+001 0.000000000000e+000
          2.400000000000e+001 2.000000000000e+001 0.000000000000e+000
          2.600000000000e+001 0.000000000000e+000 0.000000000000e+000
          2.600000000000e+001 2.500000000000e+000 0.000000000000e+000
          2.600000000000e+001 5.000000000000e+000 0.000000000000e+000
          2.600000000000e+001 7.500000000000e+000 0.000000000000e+000
          2.600000000000e+001 1.000000000000e+001 0.000000000000e+000
          2.600000000000e+001 1.250000000000e+001 0.000000000000e+000
          2.600000000000e+001 1.500000000000e+001 0.000000000000e+000
          2.600000000000e+001 1.750000000000e+001 0.000000000000e+000
          2.600000000000e+001 2.000000000000e+001 0.000000000000e+000
          2.800000000000e+001 0.000000000000e+000 0.000000000000e+000
          2.800000000000e+001 2.500000000000e+000 0.000000000000e+000
          2.800000000000e+001 5.000000000000e+000 0.000000000000e+000
          2.800000000000e+001 7.500000000000e+000 0.000000000000e+000
          2.800000000000e+001 1.000000000000e+001 0.000000000000e+000
          2.800000000000e+001 1.250000000000e+001 0.000000000000e+000
          2.800000000000e+001 1.500000000000e+001 0.000000000000e+000
          2.800000000000e+001 1.750000000000e+001 0.000000000000e+000
          2.800000000000e+001 2.000000000000e+001 0.000000000000e+000
          3.000000000000e+001 0.000000000000e+000 0.000000000000e+000
          3.000000000000e+001 2.500000000000e+000 0.000000000000e+000
          3.000000000000e+001 5.000000000000e+000 0.000000000000e+000
          3.000000000000e+001 7.500000000000e+000 0.000000000000e+000
[...]
      <PointData Scalars="CAPILLARY_PRESSURE">
        <DataArray type="Float64" Name="CAPILLARY_PRESSURE" format="ascii">
          3.836746562292e+005 3.818550840471e+005 3.818550840471e+005 3.836746562288e+005 3.818550840469e+005 3.836746562289e+005 3.818550840471e+005 3.836746562289e+005 3.818550840471e+005 3.836746562289e+005 3.818550840469e+005 3.836746562288e+005 3.818550840469e+005 3.836746562290e+005 3.818550840470e+005 3.836746562291e+005 3.818550840470e+005 3.836746562291e+005 3.800202478741e+005 3.800202478742e+005 3.800202478743e+005 3.800202478743e+005 3.800202478741e+005 3.800202478745e+005 3.800202478742e+005 3.800202478744e+005 3.800202478740e+005 3.781732971229e+005 3.781732971229e+005 3.781732971231e+005 3.781732971228e+005 3.781732971229e+005 3.781732971229e+005 3.781732971228e+005 3.781732971229e+005 3.781732971229e+005 3.763122001741e+005 3.763122001741e+005 3.763122001746e+005 3.763122001739e+005 3.763122001743e+005 3.763122001741e+005 3.763122001742e+005 3.763122001740e+005 3.763122001741e+005 3.744369554122e+005 3.744369554127e+005 3.744369554122e+005 3.744369554124e+005 3.744369554123e+005 3.744369554125e+005 3.744369554123e+005 3.744369554122e+005 3.744369554124e+005 3.725471714905e+005 3.725471714904e+005 3.725471714904e+005 3.725471714905e+005 3.725471714904e+005 3.725471714905e+005 3.725471714904e+005 3.725471714905e+005 3.725471714905e+005 3.706424297993e+005 3.706424297992e+005 3.706424297994e+005 3.706424297994e+005 3.706424297995e+005 3.706424297991e+005 3.706424297997e+005 3.706424297991e+005 3.706424297997e+005 3.687223230540e+005 3.687223230544e+005 3.687223230542e+005 3.687223230542e+005 3.687223230542e+005 3.687223230544e+005 3.687223230539e+005 3.687223230544e+005 3.687223230541e+005 3.667864325829e+005 3.667864325826e+005 3.667864325829e+005 3.667864325827e+005 3.667864325827e+005 3.667864325828e+005 3.667864325829e+005 3.667864325826e+005 3.667864325827e+005 3.648343214060e+005 3.648343214062e+005 3.648343214063e+005 3.648343214062e+005 3.648343214063e+005 3.648343214061e+005 3.648343214061e+005 3.648343214065e+005 3.648343214060e+005 3.628655334385e+005 3.628655334385e+005 3.628655334387e+005 3.628655334383e+005 3.628655334384e+005 3.628655334384e+005 3.628655334382e+005 3.628655334384e+005 3.628655334384e+005 3.608795930144e+005 3.608795930146e+005 3.608795930144e+005 3.608795930146e+005 3.608795930146e+005 3.608795930142e+005 3.608795930144e+005 3.608795930145e+005 3.608795930142e+005 3.588760041355e+005 3.588760041351e+005 3.588760041352e+005 3.588760041350e+005 3.588760041350e+005 3.588760041348e+005 3.588760041349e+005 3.588760041351e+005 3.588760041351e+005 3.568542495266e+005 3.568542495267e+005 3.568542495265e+005 3.568542495264e+005 3.568542495265e+005 3.568542495265e+005 3.568542495263e+005 3.568542495265e+005 3.568542495266e+005 3.548137896878e+005 3.548137896877e+005 3.548137896876e+005 3.548137896876e+005 3.548137896877e+005 3.548137896876e+005 3.548137896875e+005 3.548137896877e+005 3.548137896875e+005 3.527540618772e+005 3.527540618775e+005 3.527540618773e+005 3.527540618778e+005 3.527540618775e+005 3.527540618776e+005 3.527540618775e+005 3.527540618777e+005 3.527540618775e+005 3.506744789944e+005 3.506744789947e+005 3.506744789947e+005 3.506744789948e+005 3.506744789949e+005 3.506744789949e+005 3.506744789945e+005 3.506744789949e+005 3.506744789949e+005 3.485744283293e+005 3.485744283291e+005 3.485744283292e+005 3.485744283293e+005 3.485744283292e+005 3.485744283289e+005 3.485744283294e+005 3.485744283289e+005 3.485744283291e+005 3.464532701794e+005 3.464532701793e+005 3.464532701794e+005 3.464532701793e+005 3.464532701791e+005 3.464532701793e+005 3.464532701791e+005 3.464532701794e+005 3.464532701792e+005 3.443103363335e+005 3.443103363338e+005 3.443103363336e+005 3.443103363341e+005 3.443103363337e+005 3.443103363339e+005 3.443103363337e+005 3.443103363338e+005 3.443103363339e+005 3.421449284200e+005 3.421449284202e+005 3.421449284202e+005 3.421449284200e+005 3.421449284201e+005 3.421449284198e+005 3.421449284200e+005 3.421449284200e+005 3.421449284203e+005 3.399563161097e+005 3.399563161098e+005 3.399563161097e+005 3.399563161100e+005 3.399563161100e+005 3.399563161095e+005 3.399563161098e+005 3.399563161100e+005 3.399563161098e+005 3.377437351728e+005 3.377437351729e+005 3.377437351731e+005 3.377437351733e+005 3.377437351729e+005 3.377437351730e+005 3.377437351731e+005 3.377437351731e+005 3.377437351731e+005 3.355063853702e+005 3.355063853699e+005 3.355063853700e+005 3.355063853701e+005 3.355063853702e+005 3.355063853701e+005 3.355063853702e+005 3.355063853700e+005 3.355063853703e+005 3.332434281626e+005 3.332434281627e+005 3.332434281628e+005 3.332434281627e+005 3.332434281626e+005 3.332434281626e+005 3.332434281626e+005 3.332434281627e+005 3.332434281626e+005 3.309539842273e+005 3.309539842275e+005 3.309539842274e+005 3.309539842277e+005 3.309539842277e+005 3.309539842275e+005 3.309539842276e+005 3.309539842274e+005 3.309539842276e+005 3.286371307506e+005 3.286371307514e+005 3.286371307515e+005 3.286371307514e+005 3.286371307514e+005 3.286371307516e+005 3.286371307512e+005 3.286371307516e+005 3.286371307507e+005 3.262918984851e+005 3.262918984850e+005 3.262918984851e+005 3.262918984854e+005 3.262918984852e+005 3.262918984853e+005 3.262918984852e+005 3.262918984850e+005 3.262918984855e+005 3.239172685277e+005 3.239172685281e+005 3.239172685281e+005 3.239172685281e+005 3.239172685280e+005 3.239172685282e+005 3.239172685282e+005 3.239172685283e+005 3.239172685281e+005 3.215121688118e+005 3.215121688115e+005 3.215121688116e+005 3.215121688115e+005 3.215121688116e+005 3.215121688116e+005 3.215121688117e+005 3.215121688115e+005 3.215121688118e+005 3.190754702522e+005 3.190754702528e+005 3.190754702527e+005 3.190754702526e+005 3.190754702526e+005 3.190754702525e+005 3.190754702526e+005 3.190754702526e+005 3.190754702522e+005 3.166059825296e+005 3.166059825298e+005 3.166059825296e+005 3.166059825297e+005 3.166059825298e+005 3.166059825299e+005 3.166059825299e+005 3.166059825296e+005 3.166059825301e+005 3.141024494443e+005 3.141024494445e+005 3.141024494442e+005 3.141024494444e+005 3.141024494443e+005 3.141024494446e+005 3.141024494444e+005 3.141024494446e+005 3.141024494444e+005 3.115635438112e+005 3.115635438115e+005 3.115635438115e+005 3.115635438113e+005 3.115635438116e+005 3.115635438114e+005 3.115635438114e+005 3.115635438115e+005 3.115635438114e+005 3.089878618223e+005 3.089878618221e+005 3.089878618220e+005 3.089878618222e+005 3.089878618221e+005 3.089878618222e+005 3.089878618219e+005 3.089878618221e+005 3.089878618223e+005 3.063739168125e+005 3.063739168123e+005 3.063739168121e+005 3.063739168124e+005 3.063739168123e+005 3.063739168124e+005 3.063739168122e+005 3.063739168124e+005 3.063739168122e+005 3.037201323598e+005 3.037201323597e+005 3.037201323595e+005 3.037201323595e+005 3.037201323599e+005 3.037201323597e+005 3.037201323597e+005 3.037201323598e+005 3.037201323599e+005 3.010248346148e+005 3.010248346147e+005 3.010248346148e+005 3.010248346148e+005 3.010248346147e+005 3.010248346149e+005 3.010248346149e+005 3.010248346147e+005 3.010248346147e+005 2.982862437707e+005 2.982862437709e+005 2.982862437709e+005 2.982862437712e+005 2.982862437709e+005 2.982862437709e+005 2.982862437710e+005 2.982862437711e+005 2.982862437711e+005 2.955024645435e+005 2.955024645433e+005 2.955024645435e+005 2.955024645437e+005 2.955024645435e+005 2.955024645433e+005 2.955024645438e+005 2.955024645434e+005 2.955024645434e+005 2.926714755217e+005 2.926714755215e+005 2.926714755213e+005 2.926714755214e+005 2.926714755217e+005 2.926714755216e+005 2.926714755215e+005 2.926714755216e+005 2.926714755214e+005 2.897911172257e+005 2.897911172257e+005 2.897911172256e+005 2.897911172258e+005 2.897911172256e+005 2.897911172257e+005 2.897911172258e+005 2.897911172258e+005 2.897911172258e+005 2.868590786767e+005 2.868590786766e+005 2.868590786765e+005 2.868590786763e+005 2.868590786764e+005 2.868590786767e+005 2.868590786768e+005 2.868590786766e+005 2.868590786768e+005 2.838728822418e+005 2.838728822418e+005 2.838728822420e+005 2.838728822419e+005 2.838728822418e+005 2.838728822417e+005 2.838728822419e+005 2.838728822422e+005 2.838728822418e+005 2.808298664915e+005 2.808298664914e+005 2.808298664916e+005 2.808298664913e+005 2.808298664917e+005 2.808298664914e+005 2.808298664914e+005 2.808298664916e+005 2.808298664916e+005 2.777271667320e+005 2.777271667322e+005 2.777271667319e+005 2.777271667320e+005 2.777271667322e+005 2.777271667321e+005 2.777271667322e+005 2.777271667320e+005 2.777271667323e+005 2.745616928291e+005 2.745616928293e+005 2.745616928294e+005 2.745616928291e+005 2.745616928293e+005 2.745616928291e+005 2.745616928292e+005 2.745616928293e+005 2.745616928293e+005 2.713301038498e+005 2.713301038501e+005 2.713301038501e+005 2.713301038499e+005 2.713301038499e+005 2.713301038497e+005 2.713301038501e+005 2.713301038497e+005 2.713301038500e+005 2.680287789539e+005 2.680287789536e+005 2.680287789538e+005 2.680287789538e+005 2.680287789537e+005 2.680287789537e+005 2.680287789534e+005 2.680287789537e+005 2.680287789537e+005 2.646537838367e+005 2.646537838366e+005 2.646537838369e+005 2.646537838370e+005 2.646537838366e+005 2.646537838368e+005 2.646537838368e+005 2.646537838368e+005 2.646537838367e+005 2.612008318877e+005 2.612008318872e+005 2.612008318874e+005 2.612008318869e+005 2.612008318874e+005 2.612008318872e+005 2.612008318873e+005 2.612008318871e+005 2.612008318872e+005 2.576652389982e+005 2.576652389983e+005 2.576652389982e+005 2.576652389983e+005 2.576652389981e+005 2.576652389984e+005 2.576652389982e+005 2.576652389985e+005 2.576652389983e+005 2.540418707482e+005 2.540418707479e+005 2.540418707480e+005 2.540418707480e+005 2.540418707479e+005 2.540418707482e+005 2.540418707480e+005 2.540418707480e+005 2.540418707482e+005 2.503250803234e+005 2.503250803235e+005 2.503250803235e+005 2.503250803233e+005 2.503250803235e+005 2.503250803234e+005 2.503250803234e+005 2.503250803235e+005 2.503250803231e+005 2.465086351517e+005 2.465086351517e+005 2.465086351518e+005 2.465086351519e+005 2.465086351516e+005 2.465086351516e+005 2.465086351517e+005 2.465086351518e+005 2.465086351520e+005 2.425856296486e+005 2.425856296484e+005 2.425856296486e+005 2.425856296485e+005 2.425856296487e+005 2.425856296487e+005 2.425856296485e+005 2.425856296489e+005 2.425856296485e+005 2.385483807732e+005 2.385483807732e+005 2.385483807733e+005 2.385483807732e+005 2.385483807733e+005 2.385483807735e+005 2.385483807734e+005 2.385483807733e+005 2.385483807734e+005 2.343883021063e+005 2.343883021061e+005 2.343883021062e+005 2.343883021060e+005 2.343883021062e+005 2.343883021060e+005 2.343883021063e+005 2.343883021061e+005 2.343883021061e+005 2.300957508596e+005 2.300957508598e+005 2.300957508596e+005 2.300957508597e+005 2.300957508595e+005 2.300957508598e+005 2.300957508595e+005 2.300957508597e+005 2.300957508600e+005 2.256598404438e+005 2.256598404438e+005 2.256598404440e+005 2.256598404437e+005 2.256598404439e+005 2.256598404439e+005 2.256598404438e+005 2.256598404439e+005 2.256598404435e+005 2.210682087167e+005 2.210682087171e+005 2.210682087169e+005 2.210682087171e+005 2.210682087170e+005 2.210682087169e+005 2.210682087169e+005 2.210682087168e+005 2.210682087171e+005 2.163067285373e+005 2.163067285374e+005 2.163067285375e+005 2.163067285372e+005 2.163067285373e+005 2.163067285373e+005 2.163067285375e+005 2.163067285373e+005 2.163067285373e+005 2.113591421820e+005 2.113591421817e+005 2.113591421820e+005 2.113591421819e+005 2.113591421818e+005 2.113591421817e+005 2.113591421818e+005 2.113591421818e+005 2.113591421816e+005 2.062065938389e+005 2.062065938390e+005 2.062065938388e+005 2.062065938391e+005 2.062065938390e+005 2.062065938388e+005 2.062065938389e+005 2.062065938389e+005 2.062065938388e+005 2.008270234498e+005 2.008270234498e+005 2.008270234497e+005 2.008270234498e+005 2.008270234498e+005 2.008270234496e+005 2.008270234498e+005 2.008270234499e+005 2.008270234494e+005 1.951943685710e+005 1.951943685711e+005 1.951943685711e+005 1.951943685710e+005 1.951943685709e+005 1.951943685711e+005 1.951943685710e+005 1.951943685709e+005 1.951943685708e+005 1.892774954031e+005 1.892774954033e+005 1.892774954030e+005 1.892774954030e+005 1.892774954030e+005 1.892774954031e+005 1.892774954030e+005 1.892774954030e+005 1.892774954030e+005 1.830387412463e+005 1.830387412463e+005 1.830387412462e+005 1.830387412462e+005 1.830387412462e+005 1.830387412462e+005 1.830387412462e+005 1.830387412459e+005 1.830387412462e+005 1.764318912107e+005 1.764318912106e+005 1.764318912108e+005 1.764318912105e+005 1.764318912106e+005 1.764318912106e+005 1.764318912108e+005 1.764318912104e+005 1.764318912105e+005 1.693993121137e+005 1.693993121138e+005 1.693993121134e+005 1.693993121138e+005 1.693993121134e+005 1.693993121134e+005 1.693993121134e+005 1.693993121132e+005 1.693993121132e+005 1.618677714379e+005 1.618677714378e+005 1.618677714377e+005 1.618677714380e+005 1.618677714377e+005 1.618677714379e+005 1.618677714376e+005 1.618677714374e+005 1.618677714376e+005 1.537420668493e+005 1.537420668489e+005 1.537420668491e+005 1.537420668490e+005 1.537420668494e+005 1.537420668489e+005 1.537420668491e+005 1.537420668491e+005 1.537420668486e+005 1.448948359852e+005 1.448948359849e+005 1.448948359850e+005 1.448948359849e+005 1.448948359851e+005 1.448948359854e+005 1.448948359852e+005 1.448948359850e+005 1.448948359852e+005 1.351496560947e+005 1.351496560951e+005 1.351496560950e+005 1.351496560951e+005 1.351496560947e+005 1.351496560953e+005 1.351496560955e+005 1.351496560956e+005 1.351496560953e+005 1.242510219438e+005 1.242510219453e+005 1.242510219464e+005 1.242510219452e+005 1.242510219450e+005 1.242510219462e+005 1.242510219458e+005 1.242510219466e+005 1.242510219471e+005 1.118059106141e+005 1.118059106186e+005 1.118059106222e+005 1.118059106197e+005 1.118059106180e+005 1.118059106204e+005 1.118059106190e+005 1.118059106211e+005 1.118059106230e+005 9.716277094017e+004 9.716277095371e+004 9.716277096295e+004 9.716277095277e+004 9.716277095208e+004 9.716277095512e+004 9.716277095100e+004 9.716277095376e+004 9.716277096287e+004 7.913051366675e+004 7.913051370265e+004 7.913051371610e+004 7.913051369544e+004 7.913051369495e+004 7.913051370043e+004 7.913051369113e+004 7.913051369277e+004 7.913051371904e+004 5.516510402416e+004 5.516510409004e+004 5.516510410588e+004 5.516510407606e+004 5.516510407821e+004 5.516510407177e+004 5.516510407204e+004 5.516510405987e+004 5.516510411541e+004 1.903675294687e+004 1.903675305318e+004 1.903675309187e+004 1.903675304444e+004 1.903675303274e+004 1.903675301426e+004 1.903675301980e+004 1.903675299850e+004 1.903675308988e+004 -3.137137300671e+004 -3.137137112149e+004 -3.137137034235e+004 -3.137137132761e+004 -3.137137144020e+004 -3.137137176406e+004 -3.137137178334e+004 -3.137137209957e+004 -3.137137045453e+004 -8.244562781091e+004 -8.244562684469e+004 -8.244562568370e+004 -8.244562665052e+004 -8.244562731795e+004 -8.244562726273e+004 -8.244562749699e+004 -8.244562626849e+004 -8.244562621556e+004 -1.335238697564e+005 -1.335238678501e+005 -1.335238667299e+005 -1.335238671644e+005 -1.335238667797e+005 -1.335238653813e+005 -1.335238671988e+005 -1.335238666361e+005 -1.335238661044e+005 -1.845888288400e+005 -1.845888260007e+005 -1.845888253551e+005 -1.845888235725e+005 -1.845888237328e+005 -1.845888235202e+005 -1.845888238217e+005 -1.845888225144e+005 -1.845888217983e+005 -2.356374116002e+005 -2.356374106830e+005 -2.356374096762e+005 -2.356374083531e+005 -2.356374077948e+005 -2.356374069485e+005 -2.356374070846e+005 -2.356374057056e+005 -2.356374062324e+005 -2.866735388344e+005 -2.866735386910e+005 -2.866735365416e+005 -2.866735378660e+005 -2.866735355964e+005 -2.866735351928e+005 -2.866735349342e+005 -2.866735338040e+005 -2.866735327152e+005 -3.376983435445e+005 -3.376983425570e+005 -3.376983435057e+005 -3.376983412501e+005 -3.376983409476e+005 -3.376983398156e+005 -3.376983396038e+005 -3.376983394214e+005 -3.376983383488e+005 -3.887115692808e+005 -3.887115708630e+005 -3.887115702344e+005 -3.887115700676e+005 -3.887115686537e+005 -3.887115682374e+005 -3.887115673937e+005 -3.887115660071e+005 -3.887115653360e+005 -4.397131403759e+005 -4.397131422569e+005 -4.397131429939e+005 -4.397131415393e+005 -4.397131399387e+005 -4.397131400516e+005 -4.397131384880e+005 -4.397131371474e+005 -4.397131369939e+005 -4.907031378537e+005 -4.907031401915e+005 -4.907031400499e+005 -4.907031400242e+005 -4.907031390596e+005 -4.907031372911e+005 -4.907031361099e+005 -4.907031358195e+005 -4.907031351455e+005 -5.416817271628e+005 -5.416817252229e+005 -5.416817260882e+005 -5.416817260284e+005 -5.416817257190e+005 -5.416817231640e+005 -5.416817221466e+005 -5.416817229491e+005 -5.416817226200e+005 -5.926490673028e+005 -5.926490667368e+005 -5.926490665019e+005 -5.926490664101e+005 -5.926490654440e+005 -5.926490632120e+005 -5.926490638613e+005 -5.926490632322e+005 -5.926490635640e+005 -6.436053118534e+005 -6.436053110760e+005 -6.436053110297e+005 -6.436053096038e+005 -6.436053094539e+005 -6.436053084133e+005 -6.436053081373e+005 -6.436053075483e+005 -6.436053082585e+005 -6.945505990612e+005 -6.945505981611e+005 -6.945505985317e+005 -6.945505981668e+005 -6.945505970341e+005 -6.945505969174e+005 -6.945505962986e+005 -6.945505962308e+005 -6.945505950373e+005 -7.454850657584e+005 -7.454850664288e+005 -7.454850672044e+005 -7.454850667451e+005 -7.454850660105e+005 -7.454850663130e+005 -7.454850656653e+005 -7.454850657001e+005 -7.454850654274e+005 -7.964088534987e+005 -7.964088542693e+005 -7.964088548124e+005 -7.964088542294e+005 -7.964088541853e+005 -7.964088544085e+005 -7.964088535937e+005 -7.964088541264e+005 -7.964088541964e+005 -8.473221011293e+005 -8.473221012426e+005 -8.473221015860e+005 -8.473221017123e+005 -8.473221005710e+005 -8.473221004112e+005 -8.473221007164e+005 -8.473221009821e+005 -8.473221008252e+005 -8.982249465202e+005 -8.982249473423e+005 -8.982249479738e+005 -8.982249479016e+005 -8.982249475980e+005 -8.982249469204e+005 -8.982249469209e+005 -8.982249470912e+005 -8.982249472040e+005 -9.491175343425e+005 -9.491175347746e+005 -9.491175350265e+005 -9.491175348758e+005 -9.491175349693e+005 -9.491175345113e+005 -9.491175345112e+005 -9.491175346749e+005 -9.491175345173e+005 -1.000000000000e+006 -1.000000000000e+006 -1.000000000000e+006 -1.000000000000e+006 -1.000000000000e+006 -1.000000000000e+006 -1.000000000000e+006 -1.000000000000e+006 -1.000000000000e+006 
        </DataArray>
        <DataArray type="Float64" Name="NONWET_PRESSURE" format="ascii">