<?xml version="1.0"?>
<VTKFile type="UnstructuredGrid" version="0.1" byte_order="LittleEndian">
  <UnstructuredGrid>
    <Piece NumberOfPoints="909" NumberOfCells="800">
      <Points>
        <DataArray type="Float64" NumberOfComponents="3" format="ascii">
          0.000000000000e+000 0.000000000000e+000 0.000000000000e+000
          2.000000000000e+000 0.000000000000e+000 0.000000000000e+000
          2.000000000000e+000 2.500000000000e+000 0.000000000000e+000
          0.000000000000e+000 2.500000000000e+000 0.000000000000e+000
          2.000000000000e+000 5.000000000000e+000 0.000000000000e+000
          0.000000000000e+000 5.000000000000e+000 0.000000000000e+000
          2.000000000000e+000 7.500000000000e+000 0.000000000000e+000
          0.000000000000e+000 7.500000000000e+000 0.000000000000e+000
          2.000000000000e+000 1.000000000000e+001 0.000000000000e+000
          0.000000000000e+000 1.000000000000e+001 0.000000000000e+000
          2.000000000000e+000 1.250000000000e+001 0.000000000000e+000
          0.000000000000e+000 1.250000000000e+001 0.000000000000e+000
          2.000000000000e+000 1.500000000000e+001 0.000000000000e+000
          0.000000000000e+000 1.500000000000e+001 0.000000000000e+000
          2.000000000000e+000 1.750000000000e+001 0.000000000000e+000
          0.000000000000e+000 1.750000000000e+001 0.000000000000e+000
          2.000000000000e+000 2.000000000000e+001 0.000000000000e+000
          0.000000000000e+000 2.000000000000e+001 0.000000000000e+000
          4.000000000000e+000 0.000000000000e+000 0.000000000000e+000
          4.000000000000e+000 2.500000000000e+000 0.000000000000e+000
          4.000000000000e+000 5.000000000000e+000 0.000000000000e+000
          4.000000000000e+000 7.500000000000e+000 0.000000000000e+000
          4.000000000000e+000 1.000000000000e+001 0.000000000000e+000
          4.000000000000e+000 1.250000000000e+001 0.000000000000e+000
          4.000000000000e+000 1.500000000000e+001 0.000000000000e+000
          4.000000000000e+000 1.750000000000e+001 0.000000000000e+000
          4.000000000000e+000 2.000000000000e+001 0.000000000000e+000
          6.000000000000e+000 0.000000000000e+000 0.000000000000e+000
          6.000000000000e+000 2.500000000000e+000 0.000000000000e+000
          6.000000000000e+000 5.000000000000e+000 0.000000000000e+000
          6.000000000000e+000 7.500000000000e+000 0.000000000000e+000
          6.000000000000e+000 1.000000000000e+001 0.000000000000e+000
          6.000000000000e+000 1.250000000000e+001 0.000000000000e+000
          6.000000000000e+000 1.500000000000e+001 0.000000000000e+000
          6.000000000000e+000 1.750000000000e+001 0.000000000000e+000
          6.000000000000e+000 2.000000000000e+001 0.000000000000e+000
          8.000000000000e+000 0.000000000000e+000 0.000000000000e+000
          8.000000000000e+000 2.500000000000e+000 0.000000000000e+000
          8.000000000000e+000 5.000000000000e+000 0.000000000000e+000
          8.000000000000e+000 7.500000000000e+000 0.000000000000e+000
          8.000000000000e+000 1.000000000000e+001 0.000000000000e+000
          8.000000000000e+000 1.250000000000e+001 0.000000000000e+000
          8.000000000000e+000 1.500000000000e+001 0.000000000000e+000
          8.000000000000e+000 1.750000000000e+001 0.000000000000e+000
          8.000000000000e+000 2.000000000000e+001 0.000000000000e+000
          1.000000000000e+001 0.000000000000e+000 0.000000000000e+000
          1.000000000000e+001 2.500000000000e+000 0.000000000000e+000
          1.000000000000e+001 5.000000000000e+000 0.000000000000e+000
          1.000000000000e+001 7.500000000000e+000 0.000000000000e+000
          1.000000000000e+001 1.000000000000e+001 0.000000000000e+000
          1.000000000000e+001 1.250000000000e+001 0.000000000000e+000
          1.000000000000e+001 1.500000000000e+001 0.000000000000e+000
          1.000000000000e+001 1.750000000000e+001 0.000000000000e+000
          1.000000000000e+001 2.000000000000e+001 0.000000000000e+000
          1.200000000000e+001 0.000000000000e+000 0.000000000000e+000
          1.200000000000e+001 2.500000000000e+000 0.000000000000e+000
          1.200000000000e+001 5.000000000000e+000 0.000000000000e+000
          1.200000000000e+001 7.500000000000e+000 0.000000000000e+000
          1.200000000000e+001 1.000000000000e+001 0.000000000000e+000
          1.200000000000e+001 1.250000000000e+001 0.000000000000e+000
          1.200000000000e+001 1.500000000000e+001 0.000000000000e+000
          1.200000000000e+001 1.750000000000e+001 0.000000000000e+000
          1.200000000000e+001 2.000000000000e+001 0.000000000000e+000
          1.400000000000e+001 0.000000000000e+000 0.000000000000e+000
          1.400000000000e+001 2.500000000000e+000 0.000000000000e+000
          1.400000000000e+001 5.000000000000e+000 0.000000000000e+000
          1.400000000000e+001 7.500000000000e+000 0.000000000000e+000
          1.400000000000e+001 1.000000000000e+001 0.000000000000e+000
          1.400000000000e+001 1.250000000000e+001 0.000000000000e+000
          1.400000000000e+001 1.500000000000e+001 0.000000000000e+000
          1.400000000000e+001 1.750000000000e+001 0.000000000000e+000
          1.400000000000e+001 2.000000000000e+001 0.000000000000e+000
          1.600000000000e+001 0.000000000000e+000 0.000000000000e+000
          1.600000000000e+001 2.500000000000e+000 0.000000000000e+000
          1.600000000000e+001 5.000000000000e+000 0.000000000000e+000
          1.600000000000e+001 7.500000000000e+000 0.000000000000e+000
          1.600000000000e+001 1.000000000000e+001 0.000000000000e+000
          1.600000000000e+001 1.250000000000e+001 0.000000000000e+000
          1.600000000000e+001 1.500000000000e+001 0.000000000000e+000
          1.600000000000e+001 1.750000000000e+001 0.000000000000e+000
          1.600000000000e+001 2.000000000000e+001 0.000000000000e+000
          1.800000000000e+001 0.000000000000e+000 0.000000000000e+000
          1.800000000000e+001 2.500000000000e+000 0.000000000000e+000
          1.800000000000e+001 5.000000000000e+000 0.000000000000e+000
          1.800000000000e+001 7.500000000000e+000 0.000000000000e+000
          1.800000000000e+001 1.000000000000e+001 0.000000000000e+000
          1.800000000000e+001 1.250000000000e+001 0.000000000000e+000
          1.800000000000e+001 1.500000000000e+001 0.000000000000e+000
          1.800000000000e+001 1.750000000000e+001 0.000000000000e+000
          1.800000000000e+001 2.000000000000e+001 0.000000000000e+000
          2.000000000000e+001 0.000000000000e+000 0.000000000000e+000
          2.000000000000e+001 2.500000000000e+000 0.000000000000e+000
          2.000000000000e+001 5.000000000000e+000 0.000000000000e+000
          2.000000000000e+001 7.500000000000e+000 0.000000000000e+000
          2.000000000000e+001 1.000000000000e+001 0.000000000000e+000
          2.000000000000e+001 1.250000000000e+001 0.000000000000e+000
          2.000000000000e+001 1.500000000000e+001 0.000000000000e+000
          2.000000000000e+001 1.750000000000e+001 0.000000000000e+000
          2.000000000000e+001 2.000000000000e+001 0.000000000000e+000
          2.200000000000e+001 0.000000000000e+000 0.000000000000e+000
          2.200000000000e+001 2.500000000000e+000 0.000000000000e+000
          2.200000000000e+001 5.000000000000e+000 0.000000000000e+000
          2.200000000000e+001 7.500000000000e+000 0.000000000000e+000
          2.200000000000e+001 1.000000000000e+001 0.000000000000e+000
          2.200000000000e+001 1.250000000000e+001 0.000000000000e+000
          2.200000000000e+001 1.500000000000e+001 0.000000000000e+000
          2.200000000000e+001 1.750000000000e+001 0.000000000000e+000
          2.200000000000e+001 2.000000000000e+001 0.000000000000e+000
          2.400000000000e+001 0.000000000000e+000 0.000000000000e+000
          2.400000000000e+001 2.500000000000e+000 0.000000000000e+000
          2.400000000000e+001 5.000000000000e+000 0.000000000000e+000
          2.400000000000e+001 7.500000000000e+000 0.000000000000e+000
          2.400000000000e+001 1.000000000000e+001 0.000000000000e+000
          2.400000000000e+001 1.250000000000e+001 0.000000000000e+000
          2.400000000000e+001 1.500000000000e+001 0.000000000000e+000
          2.400000000000e+001 1.750000000000e+001 0.000000000000e+000
          2.400000000000e+001 2.000000000000e+001 0.000000000000e+000
          2.600000000000e+001 0.000000000000e+000 0.000000000000e+000
          2.600000000000e+001 2.500000000000e+000 0.000000000000e+000
          2.600000000000e+001 5.000000000000e+000 0.000000000000e+000
          2.600000000000e+001 7.500000000000e+000 0.000000000000e+000
          2.600000000000e+001 1.000000000000e+001 0.000000000000e+000
          2.600000000000e+001 1.250000000000e+001 0.000000000000e+000
          2.600000000000e+001 1.500000000000e+001 0.000000000000e+000
          2.600000000000e+001 1.750000000000e+001 0.000000000000e+000
          2.600000000000e+001 2.000000000000e+001 0.000000000000e+000
          2.800000000000e+001 0.000000000000e+000 0.000000000000e+000
          2.800000000000e+001 2.500000000000e+000 0.000000000000e+000
          2.800000000000e+001 5.000000000000e+000 0.000000000000e+000
          2.800000000000e+001 7.500000000000e+000 0.000000000000e+000
          2.800000000000e+001 1.000000000000e+001 0.000000000000e+000
          2.800000000000e+001 1.250000000000e+001 0.000000000000e+000
          2.800000000000e+001 1.500000000000e+001 0.000000000000e+000
          2.800000000000e+001 1.750000000000e+001 0.000000000000e+000
          2.800000000000e+001 2.000000000000e+001 0.000000000000e+000
          3.000000000000e+001 0.000000000000e+000 0.000000000000e+000
          3.000000000000e+001 2.500000000000e+000 0.000000000000e+000
          3.000000000000e+001 5.000000000000e+000 0.000000000000e+000
          3.000000000000e+001 7.500000000000e+000 0.000000000000e+000
[...]
      <PointData Scalars="CAPILLARY_PRESSURE">
        <DataArray type="Float64" Name="CAPILLARY_PRESSURE" format="ascii">
          3.867610009200e+005 3.849594010466e+005 3.849594010465e+005 3.867610009202e+005 3.849594010465e+005 3.867610009201e+005 3.849594010465e+005 3.867610009201e+005 3.849594010465e+005 3.867610009202e+005 3.849594010465e+005 3.867610009201e+005 3.849594010465e+005 3.867610009201e+005 3.849594010465e+005 3.867610009201e+005 3.849594010465e+005 3.867610009201e+005 3.831430364479e+005 3.831430364480e+005 3.831430364480e+005 3.831430364480e+005 3.831430364480e+005 3.831430364479e+005 3.831430364480e+005 3.831430364480e+005 3.831430364480e+005 3.813116644580e+005 3.813116644579e+005 3.813116644579e+005 3.813116644580e+005 3.813116644580e+005 3.813116644580e+005 3.813116644580e+005 3.813116644580e+005 3.813116644579e+005 3.794646810992e+005 3.794646810992e+005 3.794646810992e+005 3.794646810992e+005 3.794646810992e+005 3.794646810992e+005 3.794646810992e+005 3.794646810992e+005 3.794646810992e+005 3.776018228815e+005 3.776018228814e+005 3.776018228815e+005 3.776018228814e+005 3.776018228815e+005 3.776018228814e+005 3.776018228815e+005 3.776018228814e+005 3.776018228815e+005 3.757227000116e+005 3.757227000117e+005 3.757227000116e+005 3.757227000117e+005 3.757227000116e+005 3.757227000116e+005 3.757227000117e+005 3.757227000117e+005 3.757227000117e+005 3.738269526947e+005 3.738269526946e+005 3.738269526947e+005 3.738269526947e+005 3.738269526947e+005 3.738269526947e+005 3.738269526946e+005 3.738269526947e+005 3.738269526947e+005 3.719141749305e+005 3.719141749305e+005 3.719141749305e+005 3.719141749305e+005 3.719141749305e+005 3.719141749305e+005 3.719141749305e+005 3.719141749306e+005 3.719141749305e+005 3.699839545086e+005 3.699839545086e+005 3.699839545087e+005 3.699839545086e+005 3.699839545086e+005 3.699839545087e+005 3.699839545087e+005 3.699839545087e+005 3.699839545087e+005 3.680358589666e+005 3.680358589666e+005 3.680358589666e+005 3.680358589666e+005 3.680358589666e+005 3.680358589665e+005 3.680358589666e+005 3.680358589666e+005 3.680358589666e+005 3.660694408834e+005 3.660694408833e+005 3.660694408833e+005 3.660694408834e+005 3.660694408833e+005 3.660694408834e+005 3.660694408834e+005 3.660694408834e+005 3.660694408834e+005 3.640842353716e+005 3.640842353716e+005 3.640842353716e+005 3.640842353716e+005 3.640842353716e+005 3.640842353716e+005 3.640842353716e+005 3.640842353716e+005 3.640842353716e+005 3.620797592201e+005 3.620797592200e+005 3.620797592200e+005 3.620797592200e+005 3.620797592201e+005 3.620797592200e+005 3.620797592200e+005 3.620797592200e+005 3.620797592200e+005 3.600555097137e+005 3.600555097138e+005 3.600555097137e+005 3.600555097137e+005 3.600555097137e+005 3.600555097138e+005 3.600555097137e+005 3.600555097137e+005 3.600555097137e+005 3.580109634172e+005 3.580109634172e+005 3.580109634172e+005 3.580109634172e+005 3.580109634172e+005 3.580109634172e+005 3.580109634173e+005 3.580109634173e+005 3.580109634173e+005 3.559455749764e+005 3.559455749765e+005 3.559455749765e+005 3.559455749765e+005 3.559455749764e+005 3.559455749764e+005 3.559455749765e+005 3.559455749765e+005 3.559455749764e+005 3.538587758736e+005 3.538587758736e+005 3.538587758735e+005 3.538587758736e+005 3.538587758735e+005 3.538587758736e+005 3.538587758736e+005 3.538587758736e+005 3.538587758735e+005 3.517499731082e+005 3.517499731083e+005 3.517499731082e+005 3.517499731082e+005 3.517499731083e+005 3.517499731082e+005 3.517499731083e+005 3.517499731082e+005 3.517499731082e+005 3.496185477820e+005 3.496185477819e+005 3.496185477819e+005 3.496185477819e+005 3.496185477819e+005 3.496185477818e+005 3.496185477819e+005 3.496185477819e+005 3.496185477819e+005 3.474638535675e+005 3.474638535676e+005 3.474638535676e+005 3.474638535676e+005 3.474638535675e+005 3.474638535676e+005 3.474638535676e+005 3.474638535676e+005 3.474638535675e+005 3.452852150502e+005 3.452852150501e+005 3.452852150502e+005 3.452852150502e+005 3.452852150502e+005 3.452852150501e+005 3.452852150502e+005 3.452852150501e+005 3.452852150503e+005 3.430819259287e+005 3.430819259288e+005 3.430819259287e+005 3.430819259287e+005 3.430819259288e+005 3.430819259287e+005 3.430819259287e+005 3.430819259287e+005 3.430819259287e+005 3.408532470671e+005 3.408532470670e+005 3.408532470671e+005 3.408532470671e+005 3.408532470671e+005 3.408532470671e+005 3.408532470671e+005 3.408532470671e+005 3.408532470670e+005 3.385984043827e+005 3.385984043827e+005 3.385984043827e+005 3.385984043827e+005 3.385984043826e+005 3.385984043827e+005 3.385984043827e+005 3.385984043827e+005 3.385984043826e+005 3.363165865569e+005 3.363165865569e+005 3.363165865569e+005 3.363165865569e+005 3.363165865569e+005 3.363165865568e+005 3.363165865569e+005 3.363165865569e+005 3.363165865569e+005 3.340069425497e+005 3.340069425497e+005 3.340069425497e+005 3.340069425497e+005 3.340069425497e+005 3.340069425497e+005 3.340069425496e+005 3.340069425497e+005 3.340069425497e+005 3.316685788977e+005 3.316685788978e+005 3.316685788978e+005 3.316685788978e+005 3.316685788978e+005 3.316685788977e+005 3.316685788978e+005 3.316685788978e+005 3.316685788979e+005 3.293005567730e+005 3.293005567730e+005 3.293005567731e+005 3.293005567730e+005 3.293005567730e+005 3.293005567730e+005 3.293005567730e+005 3.293005567731e+005 3.293005567730e+005 3.269018887739e+005 3.269018887739e+005 3.269018887739e+005 3.269018887739e+005 3.269018887739e+005 3.269018887739e+005 3.269018887739e+005 3.269018887739e+005 3.269018887739e+005 3.244715354203e+005 3.244715354203e+005 3.244715354203e+005 3.244715354203e+005 3.244715354203e+005 3.244715354202e+005 3.244715354203e+005 3.244715354203e+005 3.244715354203e+005 3.220084013175e+005 3.220084013174e+005 3.220084013175e+005 3.220084013174e+005 3.220084013174e+005 3.220084013175e+005 3.220084013174e+005 3.220084013175e+005 3.220084013174e+005 3.195113309502e+005 3.195113309501e+005 3.195113309501e+005 3.195113309502e+005 3.195113309502e+005 3.195113309501e+005 3.195113309502e+005 3.195113309501e+005 3.195113309502e+005 3.169791040635e+005 3.169791040635e+005 3.169791040635e+005 3.169791040635e+005 3.169791040635e+005 3.169791040636e+005 3.169791040635e+005 3.169791040636e+005 3.169791040635e+005 3.144104305800e+005 3.144104305800e+005 3.144104305800e+005 3.144104305800e+005 3.144104305800e+005 3.144104305800e+005 3.144104305800e+005 3.144104305800e+005 3.144104305800e+005 3.118039449944e+005 3.118039449944e+005 3.118039449944e+005 3.118039449944e+005 3.118039449944e+005 3.118039449944e+005 3.118039449944e+005 3.118039449944e+005 3.118039449944e+005 3.091582001822e+005 3.091582001822e+005 3.091582001822e+005 3.091582001823e+005 3.091582001822e+005 3.091582001823e+005 3.091582001822e+005 3.091582001823e+005 3.091582001822e+005 3.064716605433e+005 3.064716605434e+005 3.064716605434e+005 3.064716605434e+005 3.064716605434e+005 3.064716605433e+005 3.064716605433e+005 3.064716605434e+005 3.064716605434e+005 3.037426943940e+005 3.037426943941e+005 3.037426943941e+005 3.037426943941e+005 3.037426943941e+005 3.037426943940e+005 3.037426943940e+005 3.037426943940e+005 3.037426943940e+005 3.009695655046e+005 3.009695655046e+005 3.009695655046e+005 3.009695655046e+005 3.009695655046e+005 3.009695655047e+005 3.009695655046e+005 3.009695655046e+005 3.009695655046e+005 2.981504236637e+005 2.981504236636e+005 2.981504236637e+005 2.981504236636e+005 2.981504236637e+005 2.981504236636e+005 2.981504236636e+005 2.981504236636e+005 2.981504236636e+005 2.952832941300e+005 2.952832941300e+005 2.952832941300e+005 2.952832941300e+005 2.952832941300e+005 2.952832941301e+005 2.952832941300e+005 2.952832941301e+005 2.952832941301e+005 2.923660658093e+005 2.923660658093e+005 2.923660658093e+005 2.923660658093e+005 2.923660658093e+005 2.923660658092e+005 2.923660658093e+005 2.923660658094e+005 2.923660658092e+005 2.893964779634e+005 2.893964779633e+005 2.893964779633e+005 2.893964779633e+005 2.893964779633e+005 2.893964779634e+005 2.893964779633e+005 2.893964779633e+005 2.893964779633e+005 2.863721052265e+005 2.863721052265e+005 2.863721052265e+005 2.863721052264e+005 2.863721052265e+005 2.863721052265e+005 2.863721052265e+005 2.863721052265e+005 2.863721052264e+005 2.832903406592e+005 2.832903406591e+005 2.832903406591e+005 2.832903406591e+005 2.832903406591e+005 2.832903406592e+005 2.832903406591e+005 2.832903406591e+005 2.832903406592e+005 2.801483765197e+005 2.801483765196e+005 2.801483765197e+005 2.801483765197e+005 2.801483765196e+005 2.801483765196e+005 2.801483765197e+005 2.801483765196e+005 2.801483765196e+005 2.769431823693e+005 2.769431823694e+005 2.769431823693e+005 2.769431823693e+005 2.769431823693e+005 2.769431823693e+005 2.769431823693e+005 2.769431823693e+005 2.769431823694e+005 2.736714800516e+005 2.736714800515e+005 2.736714800515e+005 2.736714800515e+005 2.736714800515e+005 2.736714800515e+005 2.736714800515e+005 2.736714800516e+005 2.736714800516e+005 2.703297149842e+005 2.703297149842e+005 2.703297149843e+005 2.703297149842e+005 2.703297149842e+005 2.703297149842e+005 2.703297149842e+005 2.703297149842e+005 2.703297149842e+005 2.669140230894e+005 2.669140230895e+005 2.669140230894e+005 2.669140230894e+005 2.669140230895e+005 2.669140230894e+005 2.669140230894e+005 2.669140230894e+005 2.669140230894e+005 2.634201925271e+005 2.634201925271e+005 2.634201925271e+005 2.634201925271e+005 2.634201925270e+005 2.634201925271e+005 2.634201925270e+005 2.634201925271e+005 2.634201925270e+005 2.598436192116e+005 2.598436192116e+005 2.598436192116e+005 2.598436192115e+005 2.598436192116e+005 2.598436192115e+005 2.598436192115e+005 2.598436192115e+005 2.598436192116e+005 2.561792548425e+005 2.561792548424e+005 2.561792548424e+005 2.561792548425e+005 2.561792548424e+005 2.561792548424e+005 2.561792548425e+005 2.561792548425e+005 2.561792548423e+005 2.524215458664e+005 2.524215458665e+005 2.524215458665e+005 2.524215458665e+005 2.524215458665e+005 2.524215458664e+005 2.524215458665e+005 2.524215458664e+005 2.524215458665e+005 2.485643613799e+005 2.485643613799e+005 2.485643613799e+005 2.485643613800e+005 2.485643613798e+005 2.485643613800e+005 2.485643613798e+005 2.485643613799e+005 2.485643613799e+005 2.446009074466e+005 2.446009074467e+005 2.446009074466e+005 2.446009074467e+005 2.446009074466e+005 2.446009074466e+005 2.446009074467e+005 2.446009074466e+005 2.446009074467e+005 2.405236246029e+005 2.405236246029e+005 2.405236246030e+005 2.405236246029e+005 2.405236246029e+005 2.405236246030e+005 2.405236246029e+005 2.405236246029e+005 2.405236246029e+005 2.363240643825e+005 2.363240643824e+005 2.363240643824e+005 2.363240643825e+005 2.363240643824e+005 2.363240643824e+005 2.363240643824e+005 2.363240643825e+005 2.363240643824e+005 2.319927394316e+005 2.319927394316e+005 2.319927394315e+005 2.319927394316e+005 2.319927394315e+005 2.319927394316e+005 2.319927394316e+005 2.319927394316e+005 2.319927394316e+005 2.275189400626e+005 2.275189400626e+005 2.275189400627e+005 2.275189400626e+005 2.275189400626e+005 2.275189400626e+005 2.275189400626e+005 2.275189400627e+005 2.275189400627e+005 2.228905077140e+005 2.228905077140e+005 2.228905077139e+005 2.228905077141e+005 2.228905077139e+005 2.228905077140e+005 2.228905077139e+005 2.228905077140e+005 2.228905077139e+005 2.180935524289e+005 2.180935524289e+005 2.180935524289e+005 2.180935524289e+005 2.180935524290e+005 2.180935524289e+005 2.180935524289e+005 2.180935524289e+005 2.180935524289e+005 2.131120966115e+005 2.131120966115e+005 2.131120966115e+005 2.131120966115e+005 2.131120966114e+005 2.131120966116e+005 2.131120966114e+005 2.131120966115e+005 2.131120966115e+005 2.079276201038e+005 2.079276201040e+005 2.079276201039e+005 2.079276201038e+005 2.079276201039e+005 2.079276201038e+005 2.079276201039e+005 2.079276201038e+005 2.079276201039e+005 2.025184708257e+005 2.025184708256e+005 2.025184708256e+005 2.025184708257e+005 2.025184708256e+005 2.025184708258e+005 2.025184708256e+005 2.025184708257e+005 2.025184708257e+005 1.968590894127e+005 1.968590894128e+005 1.968590894128e+005 1.968590894128e+005 1.968590894127e+005 1.968590894127e+005 1.968590894127e+005 1.968590894128e+005 1.968590894127e+005 1.909189740370e+005 1.909189740370e+005 1.909189740370e+005 1.909189740370e+005 1.909189740370e+005 1.909189740370e+005 1.909189740370e+005 1.909189740370e+005 1.909189740370e+005 1.846612793344e+005 1.846612793343e+005 1.846612793344e+005 1.846612793343e+005 1.846612793343e+005 1.846612793342e+005 1.846612793343e+005 1.846612793344e+005 1.846612793343e+005 1.780408879120e+005 1.780408879121e+005 1.780408879120e+005 1.780408879120e+005 1.780408879120e+005 1.780408879120e+005 1.780408879120e+005 1.780408879120e+005 1.780408879120e+005 1.710016785218e+005 1.710016785218e+005 1.710016785218e+005 1.710016785218e+005 1.710016785217e+005 1.710016785218e+005 1.710016785217e+005 1.710016785218e+005 1.710016785216e+005 1.634724797331e+005 1.634724797329e+005 1.634724797330e+005 1.634724797329e+005 1.634724797330e+005 1.634724797329e+005 1.634724797330e+005 1.634724797330e+005 1.634724797331e+005 1.553607907647e+005 1.553607907648e+005 1.553607907649e+005 1.553607907650e+005 1.553607907649e+005 1.553607907649e+005 1.553607907651e+005 1.553607907652e+005 1.553607907653e+005 1.465428029732e+005 1.465428029733e+005 1.465428029736e+005 1.465428029739e+005 1.465428029738e+005 1.465428029735e+005 1.465428029740e+005 1.465428029741e+005 1.465428029745e+005 1.368474849092e+005 1.368474849092e+005 1.368474849094e+005 1.368474849104e+005 1.368474849100e+005 1.368474849089e+005 1.368474849096e+005 1.368474849097e+005 1.368474849102e+005 1.260297771840e+005 1.260297771829e+005 1.260297771823e+005 1.260297771835e+005 1.260297771837e+005 1.260297771816e+005 1.260297771829e+005 1.260297771811e+005 1.260297771822e+005 1.137181025863e+005 1.137181025842e+005 1.137181025799e+005 1.137181025813e+005 1.137181025836e+005 1.137181025820e+005 1.137181025829e+005 1.137181025789e+005 1.137181025802e+005 9.929993318648e+004 9.929993318555e+004 9.929993317633e+004 9.929993317564e+004 9.929993318350e+004 9.929993318404e+004 9.929993318620e+004 9.929993317665e+004 9.929993318224e+004 8.166328275020e+004 8.166328275969e+004 8.166328274907e+004 8.166328274179e+004 8.166328275566e+004 8.166328276008e+004 8.166328276404e+004 8.166328274900e+004 8.166328276456e+004 5.848061762432e+004 5.848061766017e+004 5.848061766115e+004 5.848061763849e+004 5.848061765352e+004 5.848061765706e+004 5.848061766169e+004 5.848061764403e+004 5.848061768245e+004 2.403080484540e+004 2.403080494770e+004 2.403080498072e+004 2.403080492884e+004 2.403080492740e+004 2.403080491936e+004 2.403080491921e+004 2.403080490030e+004 2.403080498774e+004 -2.567621820311e+004 -2.567621704370e+004 -2.567621653583e+004 -2.567621715846e+004 -2.567621723015e+004 -2.567621741027e+004 -2.567621743011e+004 -2.567621759808e+004 -2.567621660600e+004 -7.706689813710e+004 -7.706689684984e+004 -7.706689553803e+004 -7.706689668126e+004 -7.706689735204e+004 -7.706689731694e+004 -7.706689755942e+004 -7.706689635362e+004 -7.706689604072e+004 -1.284275631641e+005 -1.284275613434e+005 -1.284275602769e+005 -1.284275606687e+005 -1.284275602397e+005 -1.284275588015e+005 -1.284275606018e+005 -1.284275600445e+005 -1.284275595721e+005 -1.797826108824e+005 -1.797826080315e+005 -1.797826073811e+005 -1.797826056036e+005 -1.797826057516e+005 -1.797826055275e+005 -1.797826058243e+005 -1.797826045161e+005 -1.797826037891e+005 -2.311258200031e+005 -2.311258190864e+005 -2.311258180753e+005 -2.311258167512e+005 -2.311258161858e+005 -2.311258153323e+005 -2.311258154645e+005 -2.311258140830e+005 -2.311258146103e+005 -2.824583024197e+005 -2.824583022757e+005 -2.824583001246e+005 -2.824583014464e+005 -2.824582991727e+005 -2.824582987639e+005 -2.824582985033e+005 -2.824582973705e+005 -2.824582962813e+005 -3.337800925102e+005 -3.337800915223e+005 -3.337800924706e+005 -3.337800902116e+005 -3.337800899062e+005 -3.337800887721e+005 -3.337800885583e+005 -3.337800883748e+005 -3.337800873012e+005 -3.850911637771e+005 -3.850911653583e+005 -3.850911647292e+005 -3.850911645610e+005 -3.850911631452e+005 -3.850911627268e+005 -3.850911618824e+005 -3.850911604939e+005 -3.850911598227e+005 -4.363915519025e+005 -4.363915537841e+005 -4.363915545202e+005 -4.363915530654e+005 -4.363915514625e+005 -4.363915515747e+005 -4.363915500087e+005 -4.363915486683e+005 -4.363915485155e+005 -4.876812934324e+005 -4.876812957697e+005 -4.876812956276e+005 -4.876812956015e+005 -4.876812946358e+005 -4.876812928665e+005 -4.876812916835e+005 -4.876812913936e+005 -4.876812907202e+005 -5.389604233665e+005 -5.389604214260e+005 -5.389604222909e+005 -5.389604222304e+005 -5.389604219211e+005 -5.389604193654e+005 -5.389604183471e+005 -5.389604191494e+005 -5.389604188202e+005 -5.902289646375e+005 -5.902289640712e+005 -5.902289638358e+005 -5.902289637441e+005 -5.902289627782e+005 -5.902289605460e+005 -5.902289611945e+005 -5.902289605651e+005 -5.902289608965e+005 -6.414869528749e+005 -6.414869520975e+005 -6.414869520509e+005 -6.414869506251e+005 -6.414869504754e+005 -6.414869494343e+005 -6.414869491580e+005 -6.414869485683e+005 -6.414869492786e+005 -6.927344178722e+005 -6.927344169722e+005 -6.927344173426e+005 -6.927344169776e+005 -6.927344158452e+005 -6.927344157282e+005 -6.927344151091e+005 -6.927344150405e+005 -6.927344138465e+005 -7.439713903895e+005 -7.439713910594e+005 -7.439713918356e+005 -7.439713913761e+005 -7.439713906415e+005 -7.439713909438e+005 -7.439713902957e+005 -7.439713903301e+005 -7.439713900574e+005 -7.951979051151e+005 -7.951979058860e+005 -7.951979064289e+005 -7.951979058462e+005 -7.951979058021e+005 -7.951979060250e+005 -7.951979052098e+005 -7.951979057422e+005 -7.951979058122e+005 -8.464139927543e+005 -8.464139928676e+005 -8.464139932115e+005 -8.464139933377e+005 -8.464139921963e+005 -8.464139920363e+005 -8.464139923413e+005 -8.464139926069e+005 -8.464139924498e+005 -8.976196820363e+005 -8.976196828586e+005 -8.976196834900e+005 -8.976196834179e+005 -8.976196831143e+005 -8.976196824365e+005 -8.976196824370e+005 -8.976196826074e+005 -8.976196827198e+005 -9.488150080625e+005 -9.488150084950e+005 -9.488150087472e+005 -9.488150085964e+005 -9.488150086896e+005 -9.488150082316e+005 -9.488150082316e+005 -9.488150083955e+005 -9.488150082380e+005 -1.000000000000e+006 -1.000000000000e+006 -1.000000000000e+006 -1.000000000000e+006 -1.000000000000e+006 -1.000000000000e+006 -1.000000000000e+006 -1.000000000000e+006 -1.000000000000e+006 
        </DataArray>
        <DataArray type="Float64" Name="NONWET_PRESSURE" format="ascii">