<?xml version="1.0"?>
<VTKFile type="UnstructuredGrid" version="0.1" byte_order="LittleEndian">
  <UnstructuredGrid>
    <Piece NumberOfPoints="909" NumberOfCells="800">
      <Points>
        <DataArray type="Float64" NumberOfComponents="3" format="ascii">
          0.000000000000e+000 0.000000000000e+000 0.000000000000e+000
          2.000000000000e+000 0.000000000000e+000 0.000000000000e+000
          2.000000000000e+000 2.500000000000e+000 0.000000000000e+000
          0.000000000000e+000 2.500000000000e+000 0.000000000000e+000
          2.000000000000e+000 5.000000000000e+000 0.000000000000e+000
          0.000000000000e+000 5.000000000000e+000 0.000000000000e+000
          2.000000000000e+000 7.500000000000e+000 0.000000000000e+000
          0.000000000000e+000 7.500000000000e+000 0.000000000000e+000
          2.000000000000e+000 1.000000000000e+001 0.000000000000e+000
          0.000000000000e+000 1.000000000000e+001 0.000000000000e+000
          2.000000000000e+000 1.250000000000e+001 0.000000000000e+000
          0.000000000000e+000 1.250000000000e+001 0.000000000000e+000
          2.000000000000e+000 1.500000000000e+001 0.000000000000e+000
          0.000000000000e+000 1.500000000000e+001 0.000000000000e+000
          2.000000000000e+000 1.750000000000e+001 0.000000000000e+000
          0.000000000000e+000 1.750000000000e+001 0.000000000000e+000
          2.000000000000e+000 2.000000000000e+001 0.000000000000e+000
          0.000000000000e+000 2.000000000000e+001 0.000000000000e+000
          4.000000000000e+000 0.000000000000e+000 0.000000000000e+000
          4.000000000000e+000 2.500000000000e+000 0.000000000000e+000
          4.000000000000e+000 5.000000000000e+000 0.000000000000e+000
          4.000000000000e+000 7.500000000000e+000 0.000000000000e+000
          4.000000000000e+000 1.000000000000e+001 0.000000000000e+000
          4.000000000000e+000 1.250000000000e+001 0.000000000000e+000
          4.000000000000e+000 1.500000000000e+001 0.000000000000e+000
          4.000000000000e+000 1.750000000000e+001 0.000000000000e+000
          4.000000000000e+000 2.000000000000e+001 0.000000000000e+000
          6.000000000000e+000 0.000000000000e+000 0.000000000000e+000
          6.000000000000e+000 2.500000000000e+000 0.000000000000e+000
          6.000000000000e+000 5.000000000000e+000 0.000000000000e+000
          6.000000000000e+000 7.500000000000e+000 0.000000000000e+000
          6.000000000000e+000 1.000000000000e+001 0.000000000000e+000
          6.000000000000e+000 1.250000000000e+001 0.000000000000e+000
          6.000000000000e+000 1.500000000000e+001 0.000000000000e+000
          6.000000000000e+000 1.750000000000e+001 0.000000000000e+000
          6.000000000000e+000 2.000000000000e+001 0.000000000000e+000
          8.000000000000e+000 0.000000000000e+000 0.000000000000e+000
          8.000000000000e+000 2.500000000000e+000 0.000000000000e+000
          8.000000000000e+000 5.000000000000e+000 0.000000000000e+000
          8.000000000000e+000 7.500000000000e+000 0.000000000000e+000
          8.000000000000e+000 1.000000000000e+001 0.000000000000e+000
          8.000000000000e+000 1.250000000000e+001 0.000000000000e+000
          8.000000000000e+000 1.500000000000e+001 0.000000000000e+000
          8.000000000000e+000 1.750000000000e+001 0.000000000000e+000
          8.000000000000e+000 2.000000000000e+001 0.000000000000e+000
          1.000000000000e+001 0.000000000000e+000 0.000000000000e+000
          1.000000000000e+001 2.500000000000e+000 0.000000000000e+000
          1.000000000000e+001 5.000000000000e+000 0.000000000000e+000
          1.000000000000e+001 7.500000000000e+000 0.000000000000e+000
          1.000000000000e+001 1.000000000000e+001 0.000000000000e+000
          1.000000000000e+001 1.250000000000e+001 0.000000000000e+000
          1.000000000000e+001 1.500000000000e+001 0.000000000000e+000
          1.000000000000e+001 1.750000000000e+001 0.000000000000e+000
          1.000000000000e+001 2.000000000000e+001 0.000000000000e+000
          1.200000000000e+001 0.000000000000e+000 0.000000000000e+000
          1.200000000000e+001 2.500000000000e+000 0.000000000000e+000
          1.200000000000e+001 5.000000000000e+000 0.000000000000e+000
          1.200000000000e+001 7.500000000000e+000 0.000000000000e+000
          1.200000000000e+001 1.000000000000e+001 0.000000000000e+000
          1.200000000000e+001 1.250000000000e+001 0.000000000000e+000
          1.200000000000e+001 1.500000000000e+001 0.000000000000e+000
          1.200000000000e+001 1.750000000000e+001 0.000000000000e+000
          1.200000000000e+001 2.000000000000e+001 0.000000000000e+000
          1.400000000000e+001 0.000000000000e+000 0.000000000000e+000
          1.400000000000e+001 2.500000000000e+000 0.000000000000e+000
          1.400000000000e+001 5.000000000000e+000 0.000000000000e+000
          1.400000000000e+001 7.500000000000e+000 0.000000000000e+000
          1.400000000000e+001 1.000000000000e+001 0.000000000000e+000
          1.400000000000e+001 1.250000000000e+001 0.000000000000e+000
          1.400000000000e+001 1.500000000000e+001 0.000000000000e+000
          1.400000000000e+001 1.750000000000e+001 0.000000000000e+000
          1.400000000000e+001 2.000000000000e+001 0.000000000000e+000
          1.600000000000e+001 0.000000000000e+000 0.000000000000e+000
          1.600000000000e+001 2.500000000000e+000 0.000000000000e+000
          1.600000000000e+001 5.000000000000e+000 0.000000000000e+000
          1.600000000000e+001 7.500000000000e+000 0.000000000000e+000
          1.600000000000e+001 1.000000000000e+001 0.000000000000e+000
          1.600000000000e+001 1.250000000000e+001 0.000000000000e+000
          1.600000000000e+001 1.500000000000e+001 0.000000000000e+000
          1.600000000000e+001 1.750000000000e+001 0.000000000000e+000
          1.600000000000e+001 2.000000000000e+001 0.000000000000e+000
          1.800000000000e+001 0.000000000000e+000 0.000000000000e+000
          1.800000000000e+001 2.500000000000e+000 0.000000000000e+000
          1.800000000000e+001 5.000000000000e+000 0.000000000000e+000
          1.800000000000e+001 7.500000000000e+000 0.000000000000e+000
          1.800000000000e+001 1.000000000000e+001 0.000000000000e+000
          1.800000000000e+001 1.250000000000e+001 0.000000000000e+000
          1.800000000000e+001 1.500000000000e+001 0.000000000000e+000
          1.800000000000e+001 1.750000000000e+001 0.000000000000e+000
          1.800000000000e+001 2.000000000000e+001 0.000000000000e+000
          2.000000000000e+001 0.000000000000e+000 0.000000000000e+000
          2.000000000000e+001 2.500000000000e+000 0.000000000000e+000
          2.000000000000e+001 5.000000000000e+000 0.000000000000e+000
          2.000000000000e+001 7.500000000000e+000 0.000000000000e+000
          2.000000000000e+001 1.000000000000e+001 0.000000000000e+000
          2.000000000000e+001 1.250000000000e+001 0.000000000000e+000
          2.000000000000e+001 1.500000000000e+001 0.000000000000e+000
          2.000000000000e+001 1.750000000000e+001 0.000000000000e+000
          2.000000000000e+001 2.000000000000e+001 0.000000000000e+000
          2.200000000000e+001 0.000000000000e+000 0.000000000000e+000
          2.200000000000e+001 2.500000000000e+000 0.000000000000e+000
          2.200000000000e+001 5.000000000000e+000 0.000000000000e+000
          2.200000000000e+001 7.500000000000e+000 0.000000000000e+000
          2.200000000000e+001 1.000000000000e+001 0.000000000000e+000
          2.200000000000e+001 1.250000000000e+001 0.000000000000e+000
          2.200000000000e+001 1.500000000000e+001 0.000000000000e+000
          2.200000000000e+001 1.750000000000e+001 0.000000000000e+000
          2.200000000000e+001 2.000000000000e+001 0.000000000000e+000
          2.400000000000e+001 0.000000000000e+000 0.000000000000e+000
          2.400000000000e+001 2.500000000000e+000 0.000000000000e+000
          2.400000000000e+001 5.000000000000e+000 0.000000000000e+000
          2.400000000000e+001 7.500000000000e+000 0.000000000000e+000
          2.400000000000e+001 1.000000000000e+001 0.000000000000e+000
          2.400000000000e+001 1.250000000000e+001 0.000000000000e+000
          2.400000000000e+001 1.500000000000e+001 0.000000000000e+000
          2.400000000000e+001 1.750000000000e+001 0.000000000000e+000
          2.400000000000e+001 2.000000000000e+001 0.000000000000e+000
          2.600000000000e+001 0.000000000000e+000 0.000000000000e+000
          2.600000000000e+001 2.500000000000e+000 0.000000000000e+000
          2.600000000000e+001 5.000000000000e+000 0.000000000000e+000
          2.600000000000e+001 7.500000000000e+000 0.000000000000e+000
          2.600000000000e+001 1.000000000000e+001 0.000000000000e+000
          2.600000000000e+001 1.250000000000e+001 0.000000000000e+000
          2.600000000000e+001 1.500000000000e+001 0.000000000000e+000
          2.600000000000e+001 1.750000000000e+001 0.000000000000e+000
          2.600000000000e+001 2.000000000000e+001 0.000000000000e+000
          2.800000000000e+001 0.000000000000e+000 0.000000000000e+000
          2.800000000000e+001 2.500000000000e+000 0.000000000000e+000
          2.800000000000e+001 5.000000000000e+000 0.000000000000e+000
          2.800000000000e+001 7.500000000000e+000 0.000000000000e+000
          2.800000000000e+001 1.000000000000e+001 0.000000000000e+000
          2.800000000000e+001 1.250000000000e+001 0.000000000000e+000
          2.800000000000e+001 1.500000000000e+001 0.000000000000e+000
          2.800000000000e+001 1.750000000000e+001 0.000000000000e+000
          2.800000000000e+001 2.000000000000e+001 0.000000000000e+000
          3.000000000000e+001 0.000000000000e+000 0.000000000000e+000
          3.000000000000e+001 2.500000000000e+000 0.000000000000e+000
          3.000000000000e+001 5.000000000000e+000 0.000000000000e+000
          3.000000000000e+001 7.500000000000e+000 0.000000000000e+000
[...]
      <PointData Scalars="CAPILLARY_PRESSURE">
        <DataArray type="Float64" Name="CAPILLARY_PRESSURE" format="ascii">
          3.874776137523e+005 3.856804060872e+005 3.856804060871e+005 3.874776137523e+005 3.856804060871e+005 3.874776137523e+005 3.856804060871e+005 3.874776137523e+005 3.856804060871e+005 3.874776137523e+005 3.856804060871e+005 3.874776137523e+005 3.856804060871e+005 3.874776137523e+005 3.856804060871e+005 3.874776137523e+005 3.856804060871e+005 3.874776137523e+005 3.838681380613e+005 3.838681380614e+005 3.838681380614e+005 3.838681380614e+005 3.838681380614e+005 3.838681380614e+005 3.838681380614e+005 3.838681380614e+005 3.838681380614e+005 3.820403366998e+005 3.820403366998e+005 3.820403366998e+005 3.820403366998e+005 3.820403366998e+005 3.820403366998e+005 3.820403366998e+005 3.820403366998e+005 3.820403366998e+005 3.801965454797e+005 3.801965454797e+005 3.801965454797e+005 3.801965454797e+005 3.801965454797e+005 3.801965454797e+005 3.801965454797e+005 3.801965454797e+005 3.801965454797e+005 3.783364860034e+005 3.783364860034e+005 3.783364860034e+005 3.783364860034e+005 3.783364860034e+005 3.783364860034e+005 3.783364860034e+005 3.783364860034e+005 3.783364860034e+005 3.764597847266e+005 3.764597847266e+005 3.764597847266e+005 3.764597847266e+005 3.764597847267e+005 3.764597847266e+005 3.764597847267e+005 3.764597847266e+005 3.764597847266e+005 3.745660607255e+005 3.745660607256e+005 3.745660607256e+005 3.745660607256e+005 3.745660607256e+005 3.745660607256e+005 3.745660607255e+005 3.745660607256e+005 3.745660607255e+005 3.726549117531e+005 3.726549117531e+005 3.726549117531e+005 3.726549117531e+005 3.726549117531e+005 3.726549117531e+005 3.726549117531e+005 3.726549117531e+005 3.726549117531e+005 3.707259254332e+005 3.707259254333e+005 3.707259254333e+005 3.707259254333e+005 3.707259254333e+005 3.707259254333e+005 3.707259254333e+005 3.707259254333e+005 3.707259254332e+005 3.687786740039e+005 3.687786740039e+005 3.687786740039e+005 3.687786740039e+005 3.687786740039e+005 3.687786740039e+005 3.687786740039e+005 3.687786740039e+005 3.687786740039e+005 3.668127138460e+005 3.668127138459e+005 3.668127138459e+005 3.668127138460e+005 3.668127138460e+005 3.668127138460e+005 3.668127138460e+005 3.668127138460e+005 3.668127138459e+005 3.648275836217e+005 3.648275836217e+005 3.648275836217e+005 3.648275836217e+005 3.648275836217e+005 3.648275836217e+005 3.648275836217e+005 3.648275836217e+005 3.648275836217e+005 3.628228035286e+005 3.628228035286e+005 3.628228035286e+005 3.628228035286e+005 3.628228035286e+005 3.628228035286e+005 3.628228035286e+005 3.628228035286e+005 3.628228035286e+005 3.607978742787e+005 3.607978742787e+005 3.607978742787e+005 3.607978742787e+005 3.607978742787e+005 3.607978742787e+005 3.607978742787e+005 3.607978742787e+005 3.607978742787e+005 3.587522761355e+005 3.587522761355e+005 3.587522761355e+005 3.587522761355e+005 3.587522761355e+005 3.587522761355e+005 3.587522761355e+005 3.587522761355e+005 3.587522761355e+005 3.566854677804e+005 3.566854677804e+005 3.566854677804e+005 3.566854677804e+005 3.566854677804e+005 3.566854677804e+005 3.566854677804e+005 3.566854677804e+005 3.566854677804e+005 3.545968850820e+005 3.545968850820e+005 3.545968850820e+005 3.545968850820e+005 3.545968850820e+005 3.545968850820e+005 3.545968850820e+005 3.545968850820e+005 3.545968850820e+005 3.524859397520e+005 3.524859397520e+005 3.524859397520e+005 3.524859397520e+005 3.524859397520e+005 3.524859397520e+005 3.524859397520e+005 3.524859397520e+005 3.524859397520e+005 3.503520178986e+005 3.503520178986e+005 3.503520178986e+005 3.503520178986e+005 3.503520178986e+005 3.503520178986e+005 3.503520178986e+005 3.503520178986e+005 3.503520178986e+005 3.481944784709e+005 3.481944784709e+005 3.481944784709e+005 3.481944784709e+005 3.481944784709e+005 3.481944784709e+005 3.481944784709e+005 3.481944784709e+005 3.481944784709e+005 3.460126515861e+005 3.460126515861e+005 3.460126515861e+005 3.460126515861e+005 3.460126515861e+005 3.460126515861e+005 3.460126515861e+005 3.460126515861e+005 3.460126515861e+005 3.438058367251e+005 3.438058367250e+005 3.438058367251e+005 3.438058367250e+005 3.438058367251e+005 3.438058367251e+005 3.438058367250e+005 3.438058367250e+005 3.438058367251e+005 3.415733007830e+005 3.415733007830e+005 3.415733007829e+005 3.415733007830e+005 3.415733007830e+005 3.415733007829e+005 3.415733007830e+005 3.415733007829e+005 3.415733007830e+005 3.393142759590e+005 3.393142759590e+005 3.393142759590e+005 3.393142759590e+005 3.393142759590e+005 3.393142759590e+005 3.393142759590e+005 3.393142759590e+005 3.393142759590e+005 3.370279574679e+005 3.370279574679e+005 3.370279574679e+005 3.370279574679e+005 3.370279574679e+005 3.370279574679e+005 3.370279574679e+005 3.370279574679e+005 3.370279574679e+005 3.347135010549e+005 3.347135010549e+005 3.347135010549e+005 3.347135010549e+005 3.347135010549e+005 3.347135010549e+005 3.347135010549e+005 3.347135010549e+005 3.347135010549e+005 3.323700202941e+005 3.323700202940e+005 3.323700202940e+005 3.323700202941e+005 3.323700202940e+005 3.323700202940e+005 3.323700202941e+005 3.323700202940e+005 3.323700202941e+005 3.299965836461e+005 3.299965836460e+005 3.299965836460e+005 3.299965836460e+005 3.299965836460e+005 3.299965836460e+005 3.299965836460e+005 3.299965836460e+005 3.299965836460e+005 3.275922112496e+005 3.275922112496e+005 3.275922112496e+005 3.275922112496e+005 3.275922112496e+005 3.275922112496e+005 3.275922112496e+005 3.275922112496e+005 3.275922112496e+005 3.251558714167e+005 3.251558714167e+005 3.251558714167e+005 3.251558714167e+005 3.251558714167e+005 3.251558714167e+005 3.251558714167e+005 3.251558714167e+005 3.251558714167e+005 3.226864767978e+005 3.226864767977e+005 3.226864767977e+005 3.226864767977e+005 3.226864767977e+005 3.226864767977e+005 3.226864767977e+005 3.226864767977e+005 3.226864767978e+005 3.201828801783e+005 3.201828801783e+005 3.201828801783e+005 3.201828801782e+005 3.201828801783e+005 3.201828801783e+005 3.201828801783e+005 3.201828801783e+005 3.201828801782e+005 3.176438698630e+005 3.176438698630e+005 3.176438698630e+005 3.176438698630e+005 3.176438698630e+005 3.176438698630e+005 3.176438698630e+005 3.176438698630e+005 3.176438698630e+005 3.150681645980e+005 3.150681645980e+005 3.150681645980e+005 3.150681645980e+005 3.150681645980e+005 3.150681645980e+005 3.150681645980e+005 3.150681645980e+005 3.150681645980e+005 3.124544079719e+005 3.124544079719e+005 3.124544079719e+005 3.124544079719e+005 3.124544079719e+005 3.124544079719e+005 3.124544079719e+005 3.124544079719e+005 3.124544079719e+005 3.098011622325e+005 3.098011622325e+005 3.098011622325e+005 3.098011622325e+005 3.098011622325e+005 3.098011622325e+005 3.098011622325e+005 3.098011622325e+005 3.098011622325e+005 3.071069014403e+005 3.071069014403e+005 3.071069014403e+005 3.071069014403e+005 3.071069014403e+005 3.071069014403e+005 3.071069014402e+005 3.071069014403e+005 3.071069014402e+005 3.043700038729e+005 3.043700038729e+005 3.043700038729e+005 3.043700038729e+005 3.043700038729e+005 3.043700038729e+005 3.043700038729e+005 3.043700038729e+005 3.043700038729e+005 3.015887435779e+005 3.015887435779e+005 3.015887435779e+005 3.015887435779e+005 3.015887435779e+005 3.015887435779e+005 3.015887435779e+005 3.015887435779e+005 3.015887435779e+005 2.987612809546e+005 2.987612809546e+005 2.987612809546e+005 2.987612809546e+005 2.987612809546e+005 2.987612809546e+005 2.987612809546e+005 2.987612809546e+005 2.987612809546e+005 2.958856522279e+005 2.958856522279e+005 2.958856522279e+005 2.958856522279e+005 2.958856522279e+005 2.958856522279e+005 2.958856522279e+005 2.958856522279e+005 2.958856522279e+005 2.929597576505e+005 2.929597576505e+005 2.929597576505e+005 2.929597576505e+005 2.929597576505e+005 2.929597576505e+005 2.929597576505e+005 2.929597576505e+005 2.929597576505e+005 2.899813482433e+005 2.899813482433e+005 2.899813482433e+005 2.899813482433e+005 2.899813482433e+005 2.899813482433e+005 2.899813482433e+005 2.899813482433e+005 2.899813482433e+005 2.869480108483e+005 2.869480108483e+005 2.869480108483e+005 2.869480108483e+005 2.869480108483e+005 2.869480108483e+005 2.869480108483e+005 2.869480108483e+005 2.869480108483e+005 2.838571512260e+005 2.838571512260e+005 2.838571512260e+005 2.838571512260e+005 2.838571512260e+005 2.838571512260e+005 2.838571512260e+005 2.838571512260e+005 2.838571512260e+005 2.807059748789e+005 2.807059748789e+005 2.807059748789e+005 2.807059748789e+005 2.807059748789e+005 2.807059748789e+005 2.807059748789e+005 2.807059748789e+005 2.807059748789e+005 2.774914652195e+005 2.774914652195e+005 2.774914652195e+005 2.774914652195e+005 2.774914652195e+005 2.774914652195e+005 2.774914652195e+005 2.774914652195e+005 2.774914652195e+005 2.742103586224e+005 2.742103586224e+005 2.742103586224e+005 2.742103586224e+005 2.742103586224e+005 2.742103586224e+005 2.742103586224e+005 2.742103586224e+005 2.742103586224e+005 2.708591158068e+005 2.708591158068e+005 2.708591158068e+005 2.708591158068e+005 2.708591158068e+005 2.708591158068e+005 2.708591158068e+005 2.708591158068e+005 2.708591158068e+005 2.674338888719e+005 2.674338888720e+005 2.674338888719e+005 2.674338888719e+005 2.674338888720e+005 2.674338888719e+005 2.674338888719e+005 2.674338888719e+005 2.674338888719e+005 2.639304831595e+005 2.639304831595e+005 2.639304831595e+005 2.639304831595e+005 2.639304831595e+005 2.639304831595e+005 2.639304831595e+005 2.639304831595e+005 2.639304831595e+005 2.603443129260e+005 2.603443129260e+005 2.603443129260e+005 2.603443129260e+005 2.603443129260e+005 2.603443129260e+005 2.603443129260e+005 2.603443129260e+005 2.603443129260e+005 2.566703495627e+005 2.566703495627e+005 2.566703495627e+005 2.566703495627e+005 2.566703495627e+005 2.566703495627e+005 2.566703495627e+005 2.566703495627e+005 2.566703495627e+005 2.529030607900e+005 2.529030607900e+005 2.529030607900e+005 2.529030607900e+005 2.529030607901e+005 2.529030607900e+005 2.529030607900e+005 2.529030607900e+005 2.529030607900e+005 2.490363388469e+005 2.490363388469e+005 2.490363388469e+005 2.490363388469e+005 2.490363388469e+005 2.490363388469e+005 2.490363388469e+005 2.490363388469e+005 2.490363388469e+005 2.450634151658e+005 2.450634151659e+005 2.450634151658e+005 2.450634151658e+005 2.450634151658e+005 2.450634151659e+005 2.450634151658e+005 2.450634151658e+005 2.450634151659e+005 2.409767583267e+005 2.409767583267e+005 2.409767583267e+005 2.409767583266e+005 2.409767583267e+005 2.409767583266e+005 2.409767583267e+005 2.409767583266e+005 2.409767583267e+005 2.367679511483e+005 2.367679511483e+005 2.367679511483e+005 2.367679511483e+005 2.367679511483e+005 2.367679511483e+005 2.367679511482e+005 2.367679511483e+005 2.367679511483e+005 2.324275415188e+005 2.324275415188e+005 2.324275415188e+005 2.324275415188e+005 2.324275415188e+005 2.324275415188e+005 2.324275415188e+005 2.324275415188e+005 2.324275415188e+005 2.279448598399e+005 2.279448598399e+005 2.279448598399e+005 2.279448598399e+005 2.279448598399e+005 2.279448598399e+005 2.279448598399e+005 2.279448598399e+005 2.279448598399e+005 2.233077935624e+005 2.233077935624e+005 2.233077935624e+005 2.233077935624e+005 2.233077935624e+005 2.233077935624e+005 2.233077935624e+005 2.233077935624e+005 2.233077935623e+005 2.185025059205e+005 2.185025059205e+005 2.185025059205e+005 2.185025059205e+005 2.185025059205e+005 2.185025059205e+005 2.185025059205e+005 2.185025059205e+005 2.185025059205e+005 2.135130812034e+005 2.135130812034e+005 2.135130812034e+005 2.135130812034e+005 2.135130812034e+005 2.135130812034e+005 2.135130812034e+005 2.135130812034e+005 2.135130812034e+005 2.083210721907e+005 2.083210721908e+005 2.083210721908e+005 2.083210721908e+005 2.083210721908e+005 2.083210721907e+005 2.083210721908e+005 2.083210721908e+005 2.083210721908e+005 2.029049157804e+005 2.029049157804e+005 2.029049157804e+005 2.029049157804e+005 2.029049157803e+005 2.029049157804e+005 2.029049157804e+005 2.029049157804e+005 2.029049157804e+005 1.972391680065e+005 1.972391680065e+005 1.972391680065e+005 1.972391680065e+005 1.972391680065e+005 1.972391680065e+005 1.972391680065e+005 1.972391680065e+005 1.972391680065e+005 1.912934838718e+005 1.912934838718e+005 1.912934838718e+005 1.912934838718e+005 1.912934838718e+005 1.912934838718e+005 1.912934838718e+005 1.912934838718e+005 1.912934838718e+005 1.850312223285e+005 1.850312223286e+005 1.850312223285e+005 1.850312223286e+005 1.850312223286e+005 1.850312223285e+005 1.850312223285e+005 1.850312223285e+005 1.850312223286e+005 1.784074920907e+005 1.784074920907e+005 1.784074920907e+005 1.784074920907e+005 1.784074920907e+005 1.784074920907e+005 1.784074920907e+005 1.784074920907e+005 1.784074920908e+005 1.713663843963e+005 1.713663843964e+005 1.713663843963e+005 1.713663843964e+005 1.713663843964e+005 1.713663843964e+005 1.713663843964e+005 1.713663843964e+005 1.713663843964e+005 1.638370229008e+005 1.638370229008e+005 1.638370229007e+005 1.638370229007e+005 1.638370229007e+005 1.638370229007e+005 1.638370229007e+005 1.638370229006e+005 1.638370229005e+005 1.557276381805e+005 1.557276381804e+005 1.557276381802e+005 1.557276381801e+005 1.557276381801e+005 1.557276381803e+005 1.557276381801e+005 1.557276381800e+005 1.557276381798e+005 1.469158438471e+005 1.469158438470e+005 1.469158438469e+005 1.469158438467e+005 1.469158438468e+005 1.469158438471e+005 1.469158438471e+005 1.469158438470e+005 1.469158438468e+005 1.372321849891e+005 1.372321849891e+005 1.372321849897e+005 1.372321849900e+005 1.372321849893e+005 1.372321849895e+005 1.372321849900e+005 1.372321849907e+005 1.372321849903e+005 1.264328634389e+005 1.264328634384e+005 1.264328634406e+005 1.264328634419e+005 1.264328634399e+005 1.264328634384e+005 1.264328634398e+005 1.264328634414e+005 1.264328634407e+005 1.141494931105e+005 1.141494931074e+005 1.141494931089e+005 1.141494931129e+005 1.141494931095e+005 1.141494931055e+005 1.141494931074e+005 1.141494931090e+005 1.141494931070e+005 9.977866854207e+004 9.977866853375e+004 9.977866852852e+004 9.977866853488e+004 9.977866853541e+004 9.977866853051e+004 9.977866853347e+004 9.977866853040e+004 9.977866852729e+004 8.222707984065e+004 8.222707983131e+004 8.222707981518e+004 8.222707982003e+004 8.222707983103e+004 8.222707983191e+004 8.222707983661e+004 8.222707982418e+004 8.222707982518e+004 5.921249005598e+004 5.921249006642e+004 5.921249005209e+004 5.921249004288e+004 5.921249006341e+004 5.921249006949e+004 5.921249007544e+004 5.921249005566e+004 5.921249007635e+004 2.512856338289e+004 2.512856346796e+004 2.512856348825e+004 2.512856344506e+004 2.512856344980e+004 2.512856344655e+004 2.512856344762e+004 2.512856342634e+004 2.512856350190e+004 -2.439645345192e+004 -2.439645238682e+004 -2.439645192795e+004 -2.439645250391e+004 -2.439645255718e+004 -2.439645271533e+004 -2.439645273552e+004 -2.439645289557e+004 -2.439645197915e+004 -7.584745208536e+004 -7.584745077491e+004 -7.584744947611e+004 -7.584745063777e+004 -7.584745127458e+004 -7.584745122725e+004 -7.584745145614e+004 -7.584745027831e+004 -7.584744992391e+004 -1.272754388574e+005 -1.272754370669e+005 -1.272754360145e+005 -1.272754363893e+005 -1.272754359533e+005 -1.272754345013e+005 -1.272754362987e+005 -1.272754357361e+005 -1.272754352874e+005 -1.786967734578e+005 -1.786967705953e+005 -1.786967699409e+005 -1.786967681694e+005 -1.786967683121e+005 -1.786967680835e+005 -1.786967683773e+005 -1.786967670696e+005 -1.786967663325e+005 -2.301064204908e+005 -2.301064195793e+005 -2.301064185712e+005 -2.301064172427e+005 -2.301064166733e+005 -2.301064158157e+005 -2.301064159446e+005 -2.301064145618e+005 -2.301064150922e+005 -2.815059129452e+005 -2.815059127997e+005 -2.815059106480e+005 -2.815059119691e+005 -2.815059096940e+005 -2.815059092830e+005 -2.815059090203e+005 -2.815059078867e+005 -2.815059067965e+005 -3.328948257843e+005 -3.328948247967e+005 -3.328948257451e+005 -3.328948234853e+005 -3.328948231782e+005 -3.328948220424e+005 -3.328948218274e+005 -3.328948216428e+005 -3.328948205695e+005 -3.842732730123e+005 -3.842732745933e+005 -3.842732739641e+005 -3.842732737954e+005 -3.842732723787e+005 -3.842732719591e+005 -3.842732711138e+005 -3.842732697245e+005 -3.842732690527e+005 -4.356412463448e+005 -4.356412482264e+005 -4.356412489623e+005 -4.356412475070e+005 -4.356412459034e+005 -4.356412460149e+005 -4.356412444484e+005 -4.356412431072e+005 -4.356412429541e+005 -4.869987530986e+005 -4.869987554356e+005 -4.869987552934e+005 -4.869987552669e+005 -4.869987543007e+005 -4.869987525309e+005 -4.869987513472e+005 -4.869987510570e+005 -4.869987503833e+005 -5.383458059483e+005 -5.383458040076e+005 -5.383458048723e+005 -5.383458048116e+005 -5.383458045022e+005 -5.383458019459e+005 -5.383458009272e+005 -5.383458017290e+005 -5.383458013995e+005 -5.896824061317e+005 -5.896824055651e+005 -5.896824053297e+005 -5.896824052376e+005 -5.896824042716e+005 -5.896824020389e+005 -5.896824026872e+005 -5.896824020574e+005 -5.896824023888e+005 -6.410085656591e+005 -6.410085648817e+005 -6.410085648349e+005 -6.410085634090e+005 -6.410085632591e+005 -6.410085622177e+005 -6.410085619411e+005 -6.410085613512e+005 -6.410085620615e+005 -6.923242908700e+005 -6.923242899700e+005 -6.923242903403e+005 -6.923242899750e+005 -6.923242888425e+005 -6.923242887253e+005 -6.923242881061e+005 -6.923242880373e+005 -6.923242868434e+005 -7.436295893155e+005 -7.436295899854e+005 -7.436295907615e+005 -7.436295903020e+005 -7.436295895671e+005 -7.436295898694e+005 -7.436295892211e+005 -7.436295892554e+005 -7.436295889827e+005 -7.949244724339e+005 -7.949244732048e+005 -7.949244737477e+005 -7.949244731649e+005 -7.949244731206e+005 -7.949244733434e+005 -7.949244725282e+005 -7.949244730605e+005 -7.949244731305e+005 -8.462089476050e+005 -8.462089477184e+005 -8.462089480622e+005 -8.462089481883e+005 -8.462089470468e+005 -8.462089468867e+005 -8.462089471917e+005 -8.462089474573e+005 -8.462089473002e+005 -8.974830203835e+005 -8.974830212058e+005 -8.974830218372e+005 -8.974830217650e+005 -8.974830214613e+005 -8.974830207835e+005 -8.974830207840e+005 -8.974830209544e+005 -8.974830210668e+005 -9.487467024216e+005 -9.487467028540e+005 -9.487467031062e+005 -9.487467029555e+005 -9.487467030485e+005 -9.487467025906e+005 -9.487467025905e+005 -9.487467027545e+005 -9.487467025969e+005 -1.000000000000e+006 -1.000000000000e+006 -1.000000000000e+006 -1.000000000000e+006 -1.000000000000e+006 -1.000000000000e+006 -1.000000000000e+006 -1.000000000000e+006 -1.000000000000e+006 
        </DataArray>
        <DataArray type="Float64" Name="NONWET_PRESSURE" format="ascii">