<?xml version="1.0"?>
<VTKFile type="UnstructuredGrid" version="0.1" byte_order="LittleEndian">
  <UnstructuredGrid>
    <Piece NumberOfPoints="909" NumberOfCells="800">
      <Points>
        <DataArray type="Float64" NumberOfComponents="3" format="ascii">
          0.000000000000e+000 0.000000000000e+000 0.000000000000e+000
          2.000000000000e+000 0.000000000000e+000 0.000000000000e+000
          2.000000000000e+000 2.500000000000e+000 0.000000000000e+000
          0.000000000000e+000 2.500000000000e+000 0.000000000000e+000
          2.000000000000e+000 5.000000000000e+000 0.000000000000e+000
          0.000000000000e+000 5.000000000000e+000 0.000000000000e+000
          2.000000000000e+000 7.500000000000e+000 0.000000000000e+000
          0.000000000000e+000 7.500000000000e+000 0.000000000000e+000
          2.000000000000e+000 1.000000000000e+001 0.000000000000e+000
          0.000000000000e+000 1.000000000000e+001 0.000000000000e+000
          2.000000000000e+000 1.250000000000e+001 0.000000000000e+000
          0.000000000000e+000 1.250000000000e+001 0.000000000000e+000
          2.000000000000e+000 1.500000000000e+001 0.000000000000e+000
          0.000000000000e+000 1.500000000000e+001 0.000000000000e+000
          2.000000000000e+000 1.750000000000e+001 0.000000000000e+000
          0.000000000000e+000 1.750000000000e+001 0.000000000000e+000
          2.000000000000e+000 2.000000000000e+001 0.000000000000e+000
          0.000000000000e+000 2.000000000000e+001 0.000000000000e+000
          4.000000000000e+000 0.000000000000e+000 0.000000000000e+000
          4.000000000000e+000 2.500000000000e+000 0.000000000000e+000
          4.000000000000e+000 5.000000000000e+000 0.000000000000e+000
          4.000000000000e+000 7.500000000000e+000 0.000000000000e+000
          4.000000000000e+000 1.000000000000e+001 0.000000000000e+000
          4.000000000000e+000 1.250000000000e+001 0.000000000000e+000
          4.000000000000e+000 1.500000000000e+001 0.000000000000e+000
          4.000000000000e+000 1.750000000000e+001 0.000000000000e+000
          4.000000000000e+000 2.000000000000e+001 0.000000000000e+000
          6.000000000000e+000 0.000000000000e+000 0.000000000000e+000
          6.000000000000e+000 2.500000000000e+000 0.000000000000e+000
          6.000000000000e+000 5.000000000000e+000 0.000000000000e+000
          6.000000000000e+000 7.500000000000e+000 0.000000000000e+000
          6.000000000000e+000 1.000000000000e+001 0.000000000000e+000
          6.000000000000e+000 1.250000000000e+001 0.000000000000e+000
          6.000000000000e+000 1.500000000000e+001 0.000000000000e+000
          6.000000000000e+000 1.750000000000e+001 0.000000000000e+000
          6.000000000000e+000 2.000000000000e+001 0.000000000000e+000
          8.000000000000e+000 0.000000000000e+000 0.000000000000e+000
          8.000000000000e+000 2.500000000000e+000 0.000000000000e+000
          8.000000000000e+000 5.000000000000e+000 0.000000000000e+000
          8.000000000000e+000 7.500000000000e+000 0.000000000000e+000
          8.000000000000e+000 1.000000000000e+001 0.000000000000e+000
          8.000000000000e+000 1.250000000000e+001 0.000000000000e+000
          8.000000000000e+000 1.500000000000e+001 0.000000000000e+000
          8.000000000000e+000 1.750000000000e+001 0.000000000000e+000
          8.000000000000e+000 2.000000000000e+001 0.000000000000e+000
          1.000000000000e+001 0.000000000000e+000 0.000000000000e+000
          1.000000000000e+001 2.500000000000e+000 0.000000000000e+000
          1.000000000000e+001 5.000000000000e+000 0.000000000000e+000
          1.000000000000e+001 7.500000000000e+000 0.000000000000e+000
          1.000000000000e+001 1.000000000000e+001 0.000000000000e+000
          1.000000000000e+001 1.250000000000e+001 0.000000000000e+000
          1.000000000000e+001 1.500000000000e+001 0.000000000000e+000
          1.000000000000e+001 1.750000000000e+001 0.000000000000e+000
          1.000000000000e+001 2.000000000000e+001 0.000000000000e+000
          1.200000000000e+001 0.000000000000e+000 0.000000000000e+000
          1.200000000000e+001 2.500000000000e+000 0.000000000000e+000
          1.200000000000e+001 5.000000000000e+000 0.000000000000e+000
          1.200000000000e+001 7.500000000000e+000 0.000000000000e+000
          1.200000000000e+001 1.000000000000e+001 0.000000000000e+000
          1.200000000000e+001 1.250000000000e+001 0.000000000000e+000
          1.200000000000e+001 1.500000000000e+001 0.000000000000e+000
          1.200000000000e+001 1.750000000000e+001 0.000000000000e+000
          1.200000000000e+001 2.000000000000e+001 0.000000000000e+000
          1.400000000000e+001 0.000000000000e+000 0.000000000000e+000
          1.400000000000e+001 2.500000000000e+000 0.000000000000e+000
          1.400000000000e+001 5.000000000000e+000 0.000000000000e+000
          1.400000000000e+001 7.500000000000e+000 0.000000000000e+000
          1.400000000000e+001 1.000000000000e+001 0.000000000000e+000
          1.400000000000e+001 1.250000000000e+001 0.000000000000e+000
          1.400000000000e+001 1.500000000000e+001 0.000000000000e+000
          1.400000000000e+001 1.750000000000e+001 0.000000000000e+000
          1.400000000000e+001 2.000000000000e+001 0.000000000000e+000
          1.600000000000e+001 0.000000000000e+000 0.000000000000e+000
          1.600000000000e+001 2.500000000000e+000 0.000000000000e+000
          1.600000000000e+001 5.000000000000e+000 0.000000000000e+000
          1.600000000000e+001 7.500000000000e+000 0.000000000000e+000
          1.600000000000e+001 1.000000000000e+001 0.000000000000e+000
          1.600000000000e+001 1.250000000000e+001 0.000000000000e+000
          1.600000000000e+001 1.500000000000e+001 0.000000000000e+000
          1.600000000000e+001 1.750000000000e+001 0.000000000000e+000
          1.600000000000e+001 2.000000000000e+001 0.000000000000e+000
          1.800000000000e+001 0.000000000000e+000 0.000000000000e+000
          1.800000000000e+001 2.500000000000e+000 0.000000000000e+000
          1.800000000000e+001 5.000000000000e+000 0.000000000000e+000
          1.800000000000e+001 7.500000000000e+000 0.000000000000e+000
          1.800000000000e+001 1.000000000000e+001 0.000000000000e+000
          1.800000000000e+001 1.250000000000e+001 0.000000000000e+000
          1.800000000000e+001 1.500000000000e+001 0.000000000000e+000
          1.800000000000e+001 1.750000000000e+001 0.000000000000e+000
          1.800000000000e+001 2.000000000000e+001 0.000000000000e+000
          2.000000000000e+001 0.000000000000e+000 0.000000000000e+000
          2.000000000000e+001 2.500000000000e+000 0.000000000000e+000
          2.000000000000e+001 5.000000000000e+000 0.000000000000e+000
          2.000000000000e+001 7.500000000000e+000 0.000000000000e+000
          2.000000000000e+001 1.000000000000e+001 0.000000000000e+000
          2.000000000000e+001 1.250000000000e+001 0.000000000000e+000
          2.000000000000e+001 1.500000000000e+001 0.000000000000e+000
          2.000000000000e+001 1.750000000000e+001 0.000000000000e+000
          2.000000000000e+001 2.000000000000e+001 0.000000000000e+000
          2.200000000000e+001 0.000000000000e+000 0.000000000000e+000
          2.200000000000e+001 2.500000000000e+000 0.000000000000e+000
          2.200000000000e+001 5.000000000000e+000 0.000000000000e+000
          2.200000000000e+001 7.500000000000e+000 0.000000000000e+000
          2.200000000000e+001 1.000000000000e+001 0.000000000000e+000
          2.200000000000e+001 1.250000000000e+001 0.000000000000e+000
          2.200000000000e+001 1.500000000000e+001 0.000000000000e+000
          2.200000000000e+001 1.750000000000e+001 0.000000000000e+000
          2.200000000000e+001 2.000000000000e+001 0.000000000000e+000
          2.400000000000e+001 0.000000000000e+000 0.000000000000e+000
          2.400000000000e+001 2.500000000000e+000 0.000000000000e+000
          2.400000000000e+001 5.000000000000e+000 0.000000000000e+000
          2.400000000000e+001 7.500000000000e+000 0.000000000000e+000
          2.400000000000e+001 1.000000000000e+001 0.000000000000e+000
          2.400000000000e+001 1.250000000000e+001 0.000000000000e+000
          2.400000000000e+001 1.500000000000e+001 0.000000000000e+000
          2.400000000000e+001 1.750000000000e+001 0.000000000000e+000
          2.400000000000e+001 2.000000000000e+001 0.000000000000e+000
          2.600000000000e+001 0.000000000000e+000 0.000000000000e+000
          2.600000000000e+001 2.500000000000e+000 0.000000000000e+000
          2.600000000000e+001 5.000000000000e+000 0.000000000000e+000
          2.600000000000e+001 7.500000000000e+000 0.000000000000e+000
          2.600000000000e+001 1.000000000000e+001 0.000000000000e+000
          2.600000000000e+001 1.250000000000e+001 0.000000000000e+000
          2.600000000000e+001 1.500000000000e+001 0.000000000000e+000
          2.600000000000e+001 1.750000000000e+001 0.000000000000e+000
          2.600000000000e+001 2.000000000000e+001 0.000000000000e+000
          2.800000000000e+001 0.000000000000e+000 0.000000000000e+000
          2.800000000000e+001 2.500000000000e+000 0.000000000000e+000
          2.800000000000e+001 5.000000000000e+000 0.000000000000e+000
          2.800000000000e+001 7.500000000000e+000 0.000000000000e+000
          2.800000000000e+001 1.000000000000e+001 0.000000000000e+000
          2.800000000000e+001 1.250000000000e+001 0.000000000000e+000
          2.800000000000e+001 1.500000000000e+001 0.000000000000e+000
          2.800000000000e+001 1.750000000000e+001 0.000000000000e+000
          2.800000000000e+001 2.000000000000e+001 0.000000000000e+000
          3.000000000000e+001 0.000000000000e+000 0.000000000000e+000
          3.000000000000e+001 2.500000000000e+000 0.000000000000e+000
          3.000000000000e+001 5.000000000000e+000 0.000000000000e+000
          3.000000000000e+001 7.500000000000e+000 0.000000000000e+000
[...]
      <PointData Scalars="CAPILLARY_PRESSURE">
        <DataArray type="Float64" Name="CAPILLARY_PRESSURE" format="ascii">
          3.723359103714e+005 3.704417302411e+005 3.704417302411e+005 3.723359103715e+005 3.704417302411e+005 3.723359103715e+005 3.704417302411e+005 3.723359103715e+005 3.704417302411e+005 3.723359103715e+005 3.704417302411e+005 3.723359103715e+005 3.704417302411e+005 3.723359103715e+005 3.704417302411e+005 3.723359103715e+005 3.704417302411e+005 3.723359103715e+005 3.685405481418e+005 3.685405481418e+005 3.685405481418e+005 3.685405481418e+005 3.685405481418e+005 3.685405481418e+005 3.685405481418e+005 3.685405481418e+005 3.685405481418e+005 3.666320084702e+005 3.666320084702e+005 3.666320084702e+005 3.666320084702e+005 3.666320084702e+005 3.666320084702e+005 3.666320084702e+005 3.666320084702e+005 3.666320084702e+005 3.647157312817e+005 3.647157312818e+005 3.647157312818e+005 3.647157312818e+005 3.647157312818e+005 3.647157312817e+005 3.647157312817e+005 3.647157312817e+005 3.647157312818e+005 3.627913185054e+005 3.627913185054e+005 3.627913185054e+005 3.627913185054e+005 3.627913185054e+005 3.627913185054e+005 3.627913185054e+005 3.627913185054e+005 3.627913185054e+005 3.608583621520e+005 3.608583621520e+005 3.608583621520e+005 3.608583621520e+005 3.608583621520e+005 3.608583621520e+005 3.608583621520e+005 3.608583621520e+005 3.608583621520e+005 3.589164425564e+005 3.589164425564e+005 3.589164425564e+005 3.589164425564e+005 3.589164425564e+005 3.589164425564e+005 3.589164425564e+005 3.589164425564e+005 3.589164425564e+005 3.569651256113e+005 3.569651256113e+005 3.569651256113e+005 3.569651256113e+005 3.569651256113e+005 3.569651256113e+005 3.569651256113e+005 3.569651256113e+005 3.569651256113e+005 3.550039595853e+005 3.550039595853e+005 3.550039595853e+005 3.550039595853e+005 3.550039595853e+005 3.550039595853e+005 3.550039595853e+005 3.550039595853e+005 3.550039595853e+005 3.530324721829e+005 3.530324721829e+005 3.530324721829e+005 3.530324721829e+005 3.530324721829e+005 3.530324721829e+005 3.530324721829e+005 3.530324721829e+005 3.530324721829e+005 3.510501690354e+005 3.510501690354e+005 3.510501690354e+005 3.510501690354e+005 3.510501690354e+005 3.510501690354e+005 3.510501690354e+005 3.510501690354e+005 3.510501690354e+005 3.490565327627e+005 3.490565327627e+005 3.490565327627e+005 3.490565327627e+005 3.490565327627e+005 3.490565327627e+005 3.490565327627e+005 3.490565327627e+005 3.490565327627e+005 3.470510220985e+005 3.470510220985e+005 3.470510220985e+005 3.470510220985e+005 3.470510220985e+005 3.470510220985e+005 3.470510220985e+005 3.470510220985e+005 3.470510220985e+005 3.450330709994e+005 3.450330709994e+005 3.450330709994e+005 3.450330709994e+005 3.450330709994e+005 3.450330709994e+005 3.450330709994e+005 3.450330709994e+005 3.450330709994e+005 3.430020876860e+005 3.430020876860e+005 3.430020876860e+005 3.430020876860e+005 3.430020876860e+005 3.430020876860e+005 3.430020876860e+005 3.430020876860e+005 3.430020876860e+005 3.409574535889e+005 3.409574535889e+005 3.409574535889e+005 3.409574535889e+005 3.409574535888e+005 3.409574535889e+005 3.409574535889e+005 3.409574535888e+005 3.409574535888e+005 3.388985221808e+005 3.388985221808e+005 3.388985221808e+005 3.388985221808e+005 3.388985221808e+005 3.388985221808e+005 3.388985221808e+005 3.388985221808e+005 3.388985221808e+005 3.368246176863e+005 3.368246176863e+005 3.368246176862e+005 3.368246176863e+005 3.368246176863e+005 3.368246176863e+005 3.368246176863e+005 3.368246176863e+005 3.368246176862e+005 3.347350336647e+005 3.347350336647e+005 3.347350336647e+005 3.347350336647e+005 3.347350336647e+005 3.347350336647e+005 3.347350336647e+005 3.347350336647e+005 3.347350336647e+005 3.326290314648e+005 3.326290314647e+005 3.326290314648e+005 3.326290314648e+005 3.326290314647e+005 3.326290314647e+005 3.326290314648e+005 3.326290314647e+005 3.326290314648e+005 3.305058385456e+005 3.305058385455e+005 3.305058385456e+005 3.305058385455e+005 3.305058385456e+005 3.305058385456e+005 3.305058385455e+005 3.305058385455e+005 3.305058385456e+005 3.283646466565e+005 3.283646466565e+005 3.283646466566e+005 3.283646466566e+005 3.283646466565e+005 3.283646466565e+005 3.283646466565e+005 3.283646466566e+005 3.283646466565e+005 3.262046098660e+005 3.262046098660e+005 3.262046098661e+005 3.262046098661e+005 3.262046098660e+005 3.262046098661e+005 3.262046098660e+005 3.262046098660e+005 3.262046098660e+005 3.240248424236e+005 3.240248424236e+005 3.240248424236e+005 3.240248424237e+005 3.240248424236e+005 3.240248424236e+005 3.240248424236e+005 3.240248424236e+005 3.240248424236e+005 3.218244164387e+005 3.218244164387e+005 3.218244164387e+005 3.218244164386e+005 3.218244164387e+005 3.218244164387e+005 3.218244164386e+005 3.218244164386e+005 3.218244164387e+005 3.196023593550e+005 3.196023593550e+005 3.196023593550e+005 3.196023593550e+005 3.196023593550e+005 3.196023593550e+005 3.196023593550e+005 3.196023593549e+005 3.196023593550e+005 3.173576511988e+005 3.173576511988e+005 3.173576511988e+005 3.173576511988e+005 3.173576511988e+005 3.173576511988e+005 3.173576511988e+005 3.173576511988e+005 3.173576511988e+005 3.150892215739e+005 3.150892215739e+005 3.150892215739e+005 3.150892215739e+005 3.150892215739e+005 3.150892215739e+005 3.150892215739e+005 3.150892215739e+005 3.150892215739e+005 3.127959463751e+005 3.127959463751e+005 3.127959463751e+005 3.127959463751e+005 3.127959463751e+005 3.127959463751e+005 3.127959463751e+005 3.127959463751e+005 3.127959463751e+005 3.104766441881e+005 3.104766441881e+005 3.104766441881e+005 3.104766441881e+005 3.104766441881e+005 3.104766441881e+005 3.104766441881e+005 3.104766441881e+005 3.104766441881e+005 3.081300723383e+005 3.081300723382e+005 3.081300723383e+005 3.081300723382e+005 3.081300723382e+005 3.081300723383e+005 3.081300723382e+005 3.081300723382e+005 3.081300723382e+005 3.057549225470e+005 3.057549225471e+005 3.057549225470e+005 3.057549225470e+005 3.057549225470e+005 3.057549225470e+005 3.057549225470e+005 3.057549225470e+005 3.057549225470e+005 3.033498161492e+005 3.033498161492e+005 3.033498161492e+005 3.033498161492e+005 3.033498161492e+005 3.033498161492e+005 3.033498161492e+005 3.033498161492e+005 3.033498161492e+005 3.009132988159e+005 3.009132988159e+005 3.009132988159e+005 3.009132988159e+005 3.009132988159e+005 3.009132988159e+005 3.009132988159e+005 3.009132988159e+005 3.009132988159e+005 2.984438347216e+005 2.984438347216e+005 2.984438347216e+005 2.984438347216e+005 2.984438347216e+005 2.984438347216e+005 2.984438347216e+005 2.984438347216e+005 2.984438347216e+005 2.959398000840e+005 2.959398000840e+005 2.959398000840e+005 2.959398000840e+005 2.959398000840e+005 2.959398000840e+005 2.959398000840e+005 2.959398000840e+005 2.959398000840e+005 2.933994759938e+005 2.933994759938e+005 2.933994759938e+005 2.933994759938e+005 2.933994759938e+005 2.933994759938e+005 2.933994759938e+005 2.933994759938e+005 2.933994759938e+005 2.908210404388e+005 2.908210404388e+005 2.908210404388e+005 2.908210404388e+005 2.908210404388e+005 2.908210404388e+005 2.908210404388e+005 2.908210404388e+005 2.908210404388e+005 2.882025594115e+005 2.882025594115e+005 2.882025594115e+005 2.882025594115e+005 2.882025594115e+005 2.882025594115e+005 2.882025594115e+005 2.882025594115e+005 2.882025594116e+005 2.855419769705e+005 2.855419769704e+005 2.855419769705e+005 2.855419769704e+005 2.855419769705e+005 2.855419769704e+005 2.855419769705e+005 2.855419769704e+005 2.855419769705e+005 2.828371041035e+005 2.828371041035e+005 2.828371041035e+005 2.828371041035e+005 2.828371041035e+005 2.828371041035e+005 2.828371041035e+005 2.828371041035e+005 2.828371041035e+005 2.800856062156e+005 2.800856062156e+005 2.800856062155e+005 2.800856062155e+005 2.800856062155e+005 2.800856062155e+005 2.800856062156e+005 2.800856062156e+005 2.800856062156e+005 2.772849890307e+005 2.772849890307e+005 2.772849890307e+005 2.772849890307e+005 2.772849890307e+005 2.772849890307e+005 2.772849890307e+005 2.772849890307e+005 2.772849890307e+005 2.744325826595e+005 2.744325826595e+005 2.744325826594e+005 2.744325826595e+005 2.744325826595e+005 2.744325826595e+005 2.744325826595e+005 2.744325826595e+005 2.744325826595e+005 2.715255235370e+005 2.715255235370e+005 2.715255235370e+005 2.715255235370e+005 2.715255235371e+005 2.715255235370e+005 2.715255235370e+005 2.715255235370e+005 2.715255235370e+005 2.685607338784e+005 2.685607338783e+005 2.685607338783e+005 2.685607338783e+005 2.685607338784e+005 2.685607338783e+005 2.685607338783e+005 2.685607338783e+005 2.685607338783e+005 2.655348982279e+005 2.655348982279e+005 2.655348982279e+005 2.655348982279e+005 2.655348982279e+005 2.655348982279e+005 2.655348982279e+005 2.655348982279e+005 2.655348982279e+005 2.624444365922e+005 2.624444365922e+005 2.624444365922e+005 2.624444365922e+005 2.624444365922e+005 2.624444365922e+005 2.624444365922e+005 2.624444365922e+005 2.624444365922e+005 2.592854735366e+005 2.592854735366e+005 2.592854735366e+005 2.592854735366e+005 2.592854735366e+005 2.592854735366e+005 2.592854735366e+005 2.592854735366e+005 2.592854735366e+005 2.560538024896e+005 2.560538024895e+005 2.560538024895e+005 2.560538024895e+005 2.560538024896e+005 2.560538024895e+005 2.560538024895e+005 2.560538024896e+005 2.560538024896e+005 2.527448443268e+005 2.527448443268e+005 2.527448443268e+005 2.527448443268e+005 2.527448443268e+005 2.527448443268e+005 2.527448443268e+005 2.527448443268e+005 2.527448443268e+005 2.493535990882e+005 2.493535990882e+005 2.493535990882e+005 2.493535990882e+005 2.493535990882e+005 2.493535990882e+005 2.493535990882e+005 2.493535990882e+005 2.493535990882e+005 2.458745893971e+005 2.458745893971e+005 2.458745893970e+005 2.458745893971e+005 2.458745893970e+005 2.458745893970e+005 2.458745893970e+005 2.458745893971e+005 2.458745893970e+005 2.423017937915e+005 2.423017937916e+005 2.423017937916e+005 2.423017937916e+005 2.423017937915e+005 2.423017937916e+005 2.423017937916e+005 2.423017937915e+005 2.423017937916e+005 2.386285676987e+005 2.386285676987e+005 2.386285676987e+005 2.386285676987e+005 2.386285676987e+005 2.386285676987e+005 2.386285676987e+005 2.386285676987e+005 2.386285676987e+005 2.348475491601e+005 2.348475491600e+005 2.348475491600e+005 2.348475491600e+005 2.348475491600e+005 2.348475491600e+005 2.348475491600e+005 2.348475491600e+005 2.348475491600e+005 2.309505455872e+005 2.309505455872e+005 2.309505455872e+005 2.309505455872e+005 2.309505455872e+005 2.309505455872e+005 2.309505455872e+005 2.309505455872e+005 2.309505455872e+005 2.269283967138e+005 2.269283967138e+005 2.269283967138e+005 2.269283967138e+005 2.269283967138e+005 2.269283967137e+005 2.269283967138e+005 2.269283967138e+005 2.269283967138e+005 2.227708074011e+005 2.227708074011e+005 2.227708074011e+005 2.227708074011e+005 2.227708074011e+005 2.227708074011e+005 2.227708074011e+005 2.227708074011e+005 2.227708074011e+005 2.184661418880e+005 2.184661418880e+005 2.184661418880e+005 2.184661418881e+005 2.184661418880e+005 2.184661418880e+005 2.184661418880e+005 2.184661418880e+005 2.184661418880e+005 2.140011681951e+005 2.140011681951e+005 2.140011681951e+005 2.140011681951e+005 2.140011681951e+005 2.140011681951e+005 2.140011681951e+005 2.140011681951e+005 2.140011681950e+005 2.093607373312e+005 2.093607373312e+005 2.093607373311e+005 2.093607373311e+005 2.093607373311e+005 2.093607373312e+005 2.093607373311e+005 2.093607373311e+005 2.093607373311e+005 2.045273761101e+005 2.045273761101e+005 2.045273761101e+005 2.045273761101e+005 2.045273761101e+005 2.045273761100e+005 2.045273761100e+005 2.045273761100e+005 2.045273761100e+005 1.994807638444e+005 1.994807638444e+005 1.994807638443e+005 1.994807638444e+005 1.994807638443e+005 1.994807638443e+005 1.994807638443e+005 1.994807638443e+005 1.994807638443e+005 1.941970504283e+005 1.941970504283e+005 1.941970504283e+005 1.941970504283e+005 1.941970504282e+005 1.941970504282e+005 1.941970504282e+005 1.941970504282e+005 1.941970504282e+005 1.886479538404e+005 1.886479538404e+005 1.886479538404e+005 1.886479538404e+005 1.886479538404e+005 1.886479538404e+005 1.886479538403e+005 1.886479538403e+005 1.886479538404e+005 1.827995445482e+005 1.827995445482e+005 1.827995445481e+005 1.827995445481e+005 1.827995445481e+005 1.827995445481e+005 1.827995445481e+005 1.827995445481e+005 1.827995445481e+005 1.766105749753e+005 1.766105749753e+005 1.766105749753e+005 1.766105749753e+005 1.766105749753e+005 1.766105749752e+005 1.766105749752e+005 1.766105749752e+005 1.766105749752e+005 1.700301299277e+005 1.700301299278e+005 1.700301299277e+005 1.700301299277e+005 1.700301299276e+005 1.700301299276e+005 1.700301299276e+005 1.700301299276e+005 1.700301299276e+005 1.629942315765e+005 1.629942315765e+005 1.629942315765e+005 1.629942315764e+005 1.629942315763e+005 1.629942315763e+005 1.629942315763e+005 1.629942315762e+005 1.629942315762e+005 1.554207762750e+005 1.554207762750e+005 1.554207762749e+005 1.554207762749e+005 1.554207762748e+005 1.554207762747e+005 1.554207762747e+005 1.554207762746e+005 1.554207762746e+005 1.472016975966e+005 1.472016975966e+005 1.472016975965e+005 1.472016975965e+005 1.472016975964e+005 1.472016975963e+005 1.472016975962e+005 1.472016975962e+005 1.472016975962e+005 1.381902893614e+005 1.381902893613e+005 1.381902893613e+005 1.381902893612e+005 1.381902893611e+005 1.381902893610e+005 1.381902893609e+005 1.381902893609e+005 1.381902893608e+005 1.281795867496e+005 1.281795867496e+005 1.281795867495e+005 1.281795867494e+005 1.281795867493e+005 1.281795867492e+005 1.281795867491e+005 1.281795867490e+005 1.281795867490e+005 1.168629782289e+005 1.168629782286e+005 1.168629782285e+005 1.168629782285e+005 1.168629782282e+005 1.168629782281e+005 1.168629782281e+005 1.168629782280e+005 1.168629782281e+005 1.037561262108e+005 1.037561262118e+005 1.037561262117e+005 1.037561262109e+005 1.037561262111e+005 1.037561262112e+005 1.037561262109e+005 1.037561262112e+005 1.037561262106e+005 8.802392735795e+004 8.802392735444e+004 8.802392735444e+004 8.802392735597e+004 8.802392735480e+004 8.802392735419e+004 8.802392735533e+004 8.802392735400e+004 8.802392735609e+004 6.803754380820e+004 6.803754381965e+004 6.803754381868e+004 6.803754381243e+004 6.803754381610e+004 6.803754381815e+004 6.803754381419e+004 6.803754381969e+004 6.803754381201e+004 4.005882096878e+004 4.005882092408e+004 4.005882092787e+004 4.005882095061e+004 4.005882093440e+004 4.005882092809e+004 4.005882094765e+004 4.005882092436e+004 4.005882095588e+004 -3.327282280930e+003 -3.327282029613e+003 -3.327282073113e+003 -3.327282182698e+003 -3.327282101123e+003 -3.327282065833e+003 -3.327282175154e+003 -3.327282018269e+003 -3.327282215346e+003 -5.330742854443e+004 -5.330742584074e+004 -5.330742473342e+004 -5.330742609905e+004 -5.330742636156e+004 -5.330742692237e+004 -5.330742681384e+004 -5.330742714857e+004 -5.330742502462e+004 -1.032710685272e+005 -1.032710675722e+005 -1.032710664157e+005 -1.032710673880e+005 -1.032710680773e+005 -1.032710680191e+005 -1.032710682382e+005 -1.032710669763e+005 -1.032710669372e+005 -1.532181629924e+005 -1.532181611002e+005 -1.532181600001e+005 -1.532181604379e+005 -1.532181600494e+005 -1.532181586385e+005 -1.532181604430e+005 -1.532181598862e+005 -1.532181593570e+005 -2.031487097196e+005 -2.031487068766e+005 -2.031487062406e+005 -2.031487044642e+005 -2.031487046214e+005 -2.031487044068e+005 -2.031487047050e+005 -2.031487033978e+005 -2.031487026792e+005 -2.530626023393e+005 -2.530626014170e+005 -2.530626004165e+005 -2.530625990924e+005 -2.530625985362e+005 -2.530625976898e+005 -2.530625978250e+005 -2.530625964471e+005 -2.530625969743e+005 -3.029598001651e+005 -3.029598000231e+005 -3.029597978754e+005 -3.029597992011e+005 -3.029597969318e+005 -3.029597965282e+005 -3.029597962694e+005 -3.029597951398e+005 -3.029597940502e+005 -3.528403884316e+005 -3.528403874460e+005 -3.528403883959e+005 -3.528403861406e+005 -3.528403858383e+005 -3.528403847059e+005 -3.528403844947e+005 -3.528403843106e+005 -3.528403832406e+005 -4.027046107540e+005 -4.027046123357e+005 -4.027046117089e+005 -4.027046115447e+005 -4.027046101290e+005 -4.027046097140e+005 -4.027046088700e+005 -4.027046074835e+005 -4.027046068110e+005 -4.525528695326e+005 -4.525528714147e+005 -4.525528721522e+005 -4.525528706989e+005 -4.525528690992e+005 -4.525528692130e+005 -4.525528676502e+005 -4.525528663069e+005 -4.525528661524e+005 -5.023856880880e+005 -5.023856904256e+005 -5.023856902839e+005 -5.023856902570e+005 -5.023856892940e+005 -5.023856875273e+005 -5.023856863446e+005 -5.023856860535e+005 -5.023856853791e+005 -5.522036646708e+005 -5.522036627296e+005 -5.522036635955e+005 -5.522036635346e+005 -5.522036632258e+005 -5.522036606714e+005 -5.522036596536e+005 -5.522036604556e+005 -5.522036601271e+005 -6.020074162429e+005 -6.020074156776e+005 -6.020074154430e+005 -6.020074153500e+005 -6.020074143853e+005 -6.020074121526e+005 -6.020074128016e+005 -6.020074121728e+005 -6.020074125047e+005 -6.517975777177e+005 -6.517975769399e+005 -6.517975768935e+005 -6.517975754668e+005 -6.517975753173e+005 -6.517975742762e+005 -6.517975740004e+005 -6.517975734121e+005 -6.517975741214e+005 -7.015747754564e+005 -7.015747745560e+005 -7.015747749273e+005 -7.015747745616e+005 -7.015747734289e+005 -7.015747733119e+005 -7.015747726931e+005 -7.015747726248e+005 -7.015747714317e+005 -7.513396299209e+005 -7.513396305922e+005 -7.513396313681e+005 -7.513396309087e+005 -7.513396301741e+005 -7.513396304764e+005 -7.513396298278e+005 -7.513396298628e+005 -7.513396295901e+005 -8.010927573110e+005 -8.010927580818e+005 -8.010927586259e+005 -8.010927580422e+005 -8.010927579979e+005 -8.010927582213e+005 -8.010927574064e+005 -8.010927579381e+005 -8.010927580082e+005 -8.508347621104e+005 -8.508347622247e+005 -8.508347625683e+005 -8.508347626949e+005 -8.508347615527e+005 -8.508347613931e+005 -8.508347616980e+005 -8.508347619634e+005 -8.508347618066e+005 -9.005662406465e+005 -9.005662414687e+005 -9.005662421007e+005 -9.005662420283e+005 -9.005662417248e+005 -9.005662410470e+005 -9.005662410469e+005 -9.005662412173e+005 -9.005662413296e+005 -9.502877903575e+005 -9.502877907892e+005 -9.502877910410e+005 -9.502877908912e+005 -9.502877909847e+005 -9.502877905259e+005 -9.502877905255e+005 -9.502877906894e+005 -9.502877905317e+005 -1.000000000000e+006 -1.000000000000e+006 -1.000000000000e+006 -1.000000000000e+006 -1.000000000000e+006 -1.000000000000e+006 -1.000000000000e+006 -1.000000000000e+006 -1.000000000000e+006 
        </DataArray>
        <DataArray type="Float64" Name="NONWET_PRESSURE" format="ascii">