<?xml version="1.0"?>
<VTKFile type="UnstructuredGrid" version="0.1" byte_order="LittleEndian">
  <UnstructuredGrid>
    <Piece NumberOfPoints="909" NumberOfCells="800">
      <Points>
        <DataArray type="Float64" NumberOfComponents="3" format="ascii">
          0.000000000000e+000 0.000000000000e+000 0.000000000000e+000
          2.000000000000e+000 0.000000000000e+000 0.000000000000e+000
          2.000000000000e+000 2.500000000000e+000 0.000000000000e+000
          0.000000000000e+000 2.500000000000e+000 0.000000000000e+000
          2.000000000000e+000 5.000000000000e+000 0.000000000000e+000
          0.000000000000e+000 5.000000000000e+000 0.000000000000e+000
          2.000000000000e+000 7.500000000000e+000 0.000000000000e+000
          0.000000000000e+000 7.500000000000e+000 0.000000000000e+000
          2.000000000000e+000 1.000000000000e+001 0.000000000000e+000
          0.000000000000e+000 1.000000000000e+001 0.000000000000e+000
          2.000000000000e+000 1.250000000000e+001 0.000000000000e+000
          0.000000000000e+000 1.250000000000e+001 0.000000000000e+000
          2.000000000000e+000 1.500000000000e+001 0.000000000000e+000
          0.000000000000e+000 1.500000000000e+001 0.000000000000e+000
          2.000000000000e+000 1.750000000000e+001 0.000000000000e+000
          0.000000000000e+000 1.750000000000e+001 0.000000000000e+000
          2.000000000000e+000 2.000000000000e+001 0.000000000000e+000
          0.000000000000e+000 2.000000000000e+001 0.000000000000e+000
          4.000000000000e+000 0.000000000000e+000 0.000000000000e+000
          4.000000000000e+000 2.500000000000e+000 0.000000000000e+000
          4.000000000000e+000 5.000000000000e+000 0.000000000000e+000
          4.000000000000e+000 7.500000000000e+000 0.000000000000e+000
          4.000000000000e+000 1.000000000000e+001 0.000000000000e+000
          4.000000000000e+000 1.250000000000e+001 0.000000000000e+000
          4.000000000000e+000 1.500000000000e+001 0.000000000000e+000
          4.000000000000e+000 1.750000000000e+001 0.000000000000e+000
          4.000000000000e+000 2.000000000000e+001 0.000000000000e+000
          6.000000000000e+000 0.000000000000e+000 0.000000000000e+000
          6.000000000000e+000 2.500000000000e+000 0.000000000000e+000
          6.000000000000e+000 5.000000000000e+000 0.000000000000e+000
          6.000000000000e+000 7.500000000000e+000 0.000000000000e+000
          6.000000000000e+000 1.000000000000e+001 0.000000000000e+000
          6.000000000000e+000 1.250000000000e+001 0.000000000000e+000
          6.000000000000e+000 1.500000000000e+001 0.000000000000e+000
          6.000000000000e+000 1.750000000000e+001 0.000000000000e+000
          6.000000000000e+000 2.000000000000e+001 0.000000000000e+000
          8.000000000000e+000 0.000000000000e+000 0.000000000000e+000
          8.000000000000e+000 2.500000000000e+000 0.000000000000e+000
          8.000000000000e+000 5.000000000000e+000 0.000000000000e+000
          8.000000000000e+000 7.500000000000e+000 0.000000000000e+000
          8.000000000000e+000 1.000000000000e+001 0.000000000000e+000
          8.000000000000e+000 1.250000000000e+001 0.000000000000e+000
          8.000000000000e+000 1.500000000000e+001 0.000000000000e+000
          8.000000000000e+000 1.750000000000e+001 0.000000000000e+000
          8.000000000000e+000 2.000000000000e+001 0.000000000000e+000
          1.000000000000e+001 0.000000000000e+000 0.000000000000e+000
          1.000000000000e+001 2.500000000000e+000 0.000000000000e+000
          1.000000000000e+001 5.000000000000e+000 0.000000000000e+000
          1.000000000000e+001 7.500000000000e+000 0.000000000000e+000
          1.000000000000e+001 1.000000000000e+001 0.000000000000e+000
          1.000000000000e+001 1.250000000000e+001 0.000000000000e+000
          1.000000000000e+001 1.500000000000e+001 0.000000000000e+000
          1.000000000000e+001 1.750000000000e+001 0.000000000000e+000
          1.000000000000e+001 2.000000000000e+001 0.000000000000e+000
          1.200000000000e+001 0.000000000000e+000 0.000000000000e+000
          1.200000000000e+001 2.500000000000e+000 0.000000000000e+000
          1.200000000000e+001 5.000000000000e+000 0.000000000000e+000
          1.200000000000e+001 7.500000000000e+000 0.000000000000e+000
          1.200000000000e+001 1.000000000000e+001 0.000000000000e+000
          1.200000000000e+001 1.250000000000e+001 0.000000000000e+000
          1.200000000000e+001 1.500000000000e+001 0.000000000000e+000
          1.200000000000e+001 1.750000000000e+001 0.000000000000e+000
          1.200000000000e+001 2.000000000000e+001 0.000000000000e+000
          1.400000000000e+001 0.000000000000e+000 0.000000000000e+000
          1.400000000000e+001 2.500000000000e+000 0.000000000000e+000
          1.400000000000e+001 5.000000000000e+000 0.000000000000e+000
          1.400000000000e+001 7.500000000000e+000 0.000000000000e+000
          1.400000000000e+001 1.000000000000e+001 0.000000000000e+000
          1.400000000000e+001 1.250000000000e+001 0.000000000000e+000
          1.400000000000e+001 1.500000000000e+001 0.000000000000e+000
          1.400000000000e+001 1.750000000000e+001 0.000000000000e+000
          1.400000000000e+001 2.000000000000e+001 0.000000000000e+000
          1.600000000000e+001 0.000000000000e+000 0.000000000000e+000
          1.600000000000e+001 2.500000000000e+000 0.000000000000e+000
          1.600000000000e+001 5.000000000000e+000 0.000000000000e+000
          1.600000000000e+001 7.500000000000e+000 0.000000000000e+000
          1.600000000000e+001 1.000000000000e+001 0.000000000000e+000
          1.600000000000e+001 1.250000000000e+001 0.000000000000e+000
          1.600000000000e+001 1.500000000000e+001 0.000000000000e+000
          1.600000000000e+001 1.750000000000e+001 0.000000000000e+000
          1.600000000000e+001 2.000000000000e+001 0.000000000000e+000
          1.800000000000e+001 0.000000000000e+000 0.000000000000e+000
          1.800000000000e+001 2.500000000000e+000 0.000000000000e+000
          1.800000000000e+001 5.000000000000e+000 0.000000000000e+000
          1.800000000000e+001 7.500000000000e+000 0.000000000000e+000
          1.800000000000e+001 1.000000000000e+001 0.000000000000e+000
          1.800000000000e+001 1.250000000000e+001 0.000000000000e+000
          1.800000000000e+001 1.500000000000e+001 0.000000000000e+000
          1.800000000000e+001 1.750000000000e+001 0.000000000000e+000
          1.800000000000e+001 2.000000000000e+001 0.000000000000e+000
          2.000000000000e+001 0.000000000000e+000 0.000000000000e+000
          2.000000000000e+001 2.500000000000e+000 0.000000000000e+000
          2.000000000000e+001 5.000000000000e+000 0.000000000000e+000
          2.000000000000e+001 7.500000000000e+000 0.000000000000e+000
          2.000000000000e+001 1.000000000000e+001 0.000000000000e+000
          2.000000000000e+001 1.250000000000e+001 0.000000000000e+000
          2.000000000000e+001 1.500000000000e+001 0.000000000000e+000
          2.000000000000e+001 1.750000000000e+001 0.000000000000e+000
          2.000000000000e+001 2.000000000000e+001 0.000000000000e+000
          2.200000000000e+001 0.000000000000e+000 0.000000000000e+000
          2.200000000000e+001 2.500000000000e+000 0.000000000000e+000
          2.200000000000e+001 5.000000000000e+000 0.000000000000e+000
          2.200000000000e+001 7.500000000000e+000 0.000000000000e+000
          2.200000000000e+001 1.000000000000e+001 0.000000000000e+000
          2.200000000000e+001 1.250000000000e+001 0.000000000000e+000
          2.200000000000e+001 1.500000000000e+001 0.000000000000e+000
          2.200000000000e+001 1.750000000000e+001 0.000000000000e+000
          2.200000000000e+001 2.000000000000e+001 0.000000000000e+000
          2.400000000000e+001 0.000000000000e+000 0.000000000000e+000
          2.400000000000e+001 2.500000000000e+000 0.000000000000e+000
          2.400000000000e+001 5.000000000000e+000 0.000000000000e+000
          2.400000000000e+001 7.500000000000e+000 0.000000000000e+000
          2.400000000000e+001 1.000000000000e+001 0.000000000000e+000
          2.400000000000e+001 1.250000000000e+001 0.000000000000e+000
          2.400000000000e+001 1.500000000000e+001 0.000000000000e+000
          2.400000000000e+001 1.750000000000e+001 0.000000000000e+000
          2.400000000000e+001 2.000000000000e+001 0.000000000000e+000
          2.600000000000e+001 0.000000000000e+000 0.000000000000e+000
          2.600000000000e+001 2.500000000000e+000 0.000000000000e+000
          2.600000000000e+001 5.000000000000e+000 0.000000000000e+000
          2.600000000000e+001 7.500000000000e+000 0.000000000000e+000
          2.600000000000e+001 1.000000000000e+001 0.000000000000e+000
          2.600000000000e+001 1.250000000000e+001 0.000000000000e+000
          2.600000000000e+001 1.500000000000e+001 0.000000000000e+000
          2.600000000000e+001 1.750000000000e+001 0.000000000000e+000
          2.600000000000e+001 2.000000000000e+001 0.000000000000e+000
          2.800000000000e+001 0.000000000000e+000 0.000000000000e+000
          2.800000000000e+001 2.500000000000e+000 0.000000000000e+000
          2.800000000000e+001 5.000000000000e+000 0.000000000000e+000
          2.800000000000e+001 7.500000000000e+000 0.000000000000e+000
          2.800000000000e+001 1.000000000000e+001 0.000000000000e+000
          2.800000000000e+001 1.250000000000e+001 0.000000000000e+000
          2.800000000000e+001 1.500000000000e+001 0.000000000000e+000
          2.800000000000e+001 1.750000000000e+001 0.000000000000e+000
          2.800000000000e+001 2.000000000000e+001 0.000000000000e+000
          3.000000000000e+001 0.000000000000e+000 0.000000000000e+000
          3.000000000000e+001 2.500000000000e+000 0.000000000000e+000
          3.000000000000e+001 5.000000000000e+000 0.000000000000e+000
          3.000000000000e+001 7.500000000000e+000 0.000000000000e+000
[...]
      <PointData Scalars="CAPILLARY_PRESSURE">
        <DataArray type="Float64" Name="CAPILLARY_PRESSURE" format="ascii">
          3.123853608953e+005 3.099684336670e+005 3.099684336670e+005 3.123853608953e+005 3.099684336670e+005 3.123853608953e+005 3.099684336670e+005 3.123853608953e+005 3.099684336670e+005 3.123853608953e+005 3.099684336670e+005 3.123853608953e+005 3.099684336670e+005 3.123853608953e+005 3.099684336670e+005 3.123853608953e+005 3.099684336670e+005 3.123853608953e+005 3.075595429600e+005 3.075595429600e+005 3.075595429600e+005 3.075595429600e+005 3.075595429600e+005 3.075595429600e+005 3.075595429600e+005 3.075595429600e+005 3.075595429600e+005 3.051577536253e+005 3.051577536253e+005 3.051577536253e+005 3.051577536253e+005 3.051577536253e+005 3.051577536253e+005 3.051577536253e+005 3.051577536253e+005 3.051577536253e+005 3.027625640339e+005 3.027625640339e+005 3.027625640339e+005 3.027625640339e+005 3.027625640339e+005 3.027625640339e+005 3.027625640339e+005 3.027625640339e+005 3.027625640339e+005 3.003734604205e+005 3.003734604205e+005 3.003734604205e+005 3.003734604205e+005 3.003734604205e+005 3.003734604205e+005 3.003734604205e+005 3.003734604205e+005 3.003734604205e+005 2.979898975634e+005 2.979898975634e+005 2.979898975634e+005 2.979898975634e+005 2.979898975634e+005 2.979898975634e+005 2.979898975634e+005 2.979898975634e+005 2.979898975634e+005 2.956113126440e+005 2.956113126440e+005 2.956113126440e+005 2.956113126440e+005 2.956113126440e+005 2.956113126440e+005 2.956113126440e+005 2.956113126440e+005 2.956113126440e+005 2.932371163013e+005 2.932371163013e+005 2.932371163013e+005 2.932371163013e+005 2.932371163013e+005 2.932371163013e+005 2.932371163013e+005 2.932371163013e+005 2.932371163013e+005 2.908666928529e+005 2.908666928529e+005 2.908666928529e+005 2.908666928529e+005 2.908666928529e+005 2.908666928529e+005 2.908666928529e+005 2.908666928529e+005 2.908666928529e+005 2.884993992366e+005 2.884993992366e+005 2.884993992366e+005 2.884993992366e+005 2.884993992366e+005 2.884993992366e+005 2.884993992366e+005 2.884993992366e+005 2.884993992366e+005 2.861345636353e+005 2.861345636353e+005 2.861345636353e+005 2.861345636353e+005 2.861345636353e+005 2.861345636353e+005 2.861345636353e+005 2.861345636353e+005 2.861345636353e+005 2.837714837921e+005 2.837714837921e+005 2.837714837921e+005 2.837714837921e+005 2.837714837921e+005 2.837714837921e+005 2.837714837921e+005 2.837714837921e+005 2.837714837921e+005 2.814094250974e+005 2.814094250974e+005 2.814094250974e+005 2.814094250974e+005 2.814094250974e+005 2.814094250974e+005 2.814094250974e+005 2.814094250974e+005 2.814094250974e+005 2.790476185257e+005 2.790476185257e+005 2.790476185257e+005 2.790476185257e+005 2.790476185257e+005 2.790476185257e+005 2.790476185257e+005 2.790476185257e+005 2.790476185257e+005 2.766852584140e+005 2.766852584140e+005 2.766852584140e+005 2.766852584140e+005 2.766852584140e+005 2.766852584140e+005 2.766852584140e+005 2.766852584140e+005 2.766852584140e+005 2.743215000495e+005 2.743215000495e+005 2.743215000495e+005 2.743215000495e+005 2.743215000495e+005 2.743215000495e+005 2.743215000495e+005 2.743215000495e+005 2.743215000495e+005 2.719554570357e+005 2.719554570357e+005 2.719554570357e+005 2.719554570357e+005 2.719554570357e+005 2.719554570357e+005 2.719554570357e+005 2.719554570357e+005 2.719554570357e+005 2.695861984112e+005 2.695861984112e+005 2.695861984112e+005 2.695861984112e+005 2.695861984112e+005 2.695861984112e+005 2.695861984112e+005 2.695861984112e+005 2.695861984112e+005 2.672127454902e+005 2.672127454902e+005 2.672127454902e+005 2.672127454902e+005 2.672127454902e+005 2.672127454902e+005 2.672127454902e+005 2.672127454902e+005 2.672127454902e+005 2.648340683926e+005 2.648340683926e+005 2.648340683926e+005 2.648340683926e+005 2.648340683926e+005 2.648340683926e+005 2.648340683926e+005 2.648340683926e+005 2.648340683926e+005 2.624490822286e+005 2.624490822286e+005 2.624490822286e+005 2.624490822286e+005 2.624490822286e+005 2.624490822286e+005 2.624490822286e+005 2.624490822286e+005 2.624490822286e+005 2.600566428939e+005 2.600566428939e+005 2.600566428939e+005 2.600566428939e+005 2.600566428939e+005 2.600566428939e+005 2.600566428939e+005 2.600566428939e+005 2.600566428939e+005 2.576555424326e+005 2.576555424326e+005 2.576555424326e+005 2.576555424326e+005 2.576555424326e+005 2.576555424326e+005 2.576555424326e+005 2.576555424326e+005 2.576555424326e+005 2.552445039129e+005 2.552445039129e+005 2.552445039129e+005 2.552445039129e+005 2.552445039129e+005 2.552445039129e+005 2.552445039129e+005 2.552445039129e+005 2.552445039129e+005 2.528221757579e+005 2.528221757579e+005 2.528221757579e+005 2.528221757579e+005 2.528221757579e+005 2.528221757579e+005 2.528221757579e+005 2.528221757579e+005 2.528221757579e+005 2.503871254611e+005 2.503871254611e+005 2.503871254611e+005 2.503871254611e+005 2.503871254611e+005 2.503871254611e+005 2.503871254611e+005 2.503871254611e+005 2.503871254611e+005 2.479378326096e+005 2.479378326096e+005 2.479378326096e+005 2.479378326096e+005 2.479378326096e+005 2.479378326096e+005 2.479378326096e+005 2.479378326096e+005 2.479378326096e+005 2.454726811230e+005 2.454726811230e+005 2.454726811230e+005 2.454726811230e+005 2.454726811230e+005 2.454726811230e+005 2.454726811230e+005 2.454726811230e+005 2.454726811230e+005 2.429899506009e+005 2.429899506009e+005 2.429899506009e+005 2.429899506009e+005 2.429899506009e+005 2.429899506009e+005 2.429899506009e+005 2.429899506009e+005 2.429899506009e+005 2.404878066553e+005 2.404878066553e+005 2.404878066553e+005 2.404878066553e+005 2.404878066553e+005 2.404878066553e+005 2.404878066553e+005 2.404878066553e+005 2.404878066553e+005 2.379642900829e+005 2.379642900829e+005 2.379642900829e+005 2.379642900829e+005 2.379642900829e+005 2.379642900829e+005 2.379642900829e+005 2.379642900829e+005 2.379642900829e+005 2.354173047031e+005 2.354173047031e+005 2.354173047031e+005 2.354173047031e+005 2.354173047031e+005 2.354173047031e+005 2.354173047031e+005 2.354173047031e+005 2.354173047031e+005 2.328446036613e+005 2.328446036613e+005 2.328446036613e+005 2.328446036613e+005 2.328446036613e+005 2.328446036613e+005 2.328446036613e+005 2.328446036613e+005 2.328446036613e+005 2.302437739539e+005 2.302437739539e+005 2.302437739539e+005 2.302437739539e+005 2.302437739539e+005 2.302437739539e+005 2.302437739539e+005 2.302437739539e+005 2.302437739539e+005 2.276122188893e+005 2.276122188893e+005 2.276122188893e+005 2.276122188893e+005 2.276122188893e+005 2.276122188893e+005 2.276122188893e+005 2.276122188893e+005 2.276122188893e+005 2.249471381372e+005 2.249471381372e+005 2.249471381372e+005 2.249471381372e+005 2.249471381372e+005 2.249471381372e+005 2.249471381372e+005 2.249471381372e+005 2.249471381372e+005 2.222455049548e+005 2.222455049548e+005 2.222455049548e+005 2.222455049548e+005 2.222455049548e+005 2.222455049548e+005 2.222455049548e+005 2.222455049548e+005 2.222455049548e+005 2.195040400827e+005 2.195040400827e+005 2.195040400827e+005 2.195040400827e+005 2.195040400827e+005 2.195040400827e+005 2.195040400827e+005 2.195040400827e+005 2.195040400827e+005 2.167191817031e+005 2.167191817031e+005 2.167191817031e+005 2.167191817031e+005 2.167191817031e+005 2.167191817031e+005 2.167191817031e+005 2.167191817031e+005 2.167191817031e+005 2.138870507106e+005 2.138870507106e+005 2.138870507106e+005 2.138870507106e+005 2.138870507106e+005 2.138870507106e+005 2.138870507106e+005 2.138870507106e+005 2.138870507106e+005 2.110034103795e+005 2.110034103795e+005 2.110034103795e+005 2.110034103795e+005 2.110034103795e+005 2.110034103795e+005 2.110034103795e+005 2.110034103795e+005 2.110034103795e+005 2.080636192935e+005 2.080636192935e+005 2.080636192935e+005 2.080636192935e+005 2.080636192935e+005 2.080636192935e+005 2.080636192935e+005 2.080636192935e+005 2.080636192935e+005 2.050625761310e+005 2.050625761310e+005 2.050625761310e+005 2.050625761310e+005 2.050625761310e+005 2.050625761310e+005 2.050625761310e+005 2.050625761310e+005 2.050625761310e+005 2.019946545453e+005 2.019946545453e+005 2.019946545453e+005 2.019946545453e+005 2.019946545453e+005 2.019946545453e+005 2.019946545453e+005 2.019946545453e+005 2.019946545453e+005 1.988536259247e+005 1.988536259247e+005 1.988536259247e+005 1.988536259247e+005 1.988536259247e+005 1.988536259247e+005 1.988536259247e+005 1.988536259247e+005 1.988536259247e+005 1.956325672161e+005 1.956325672161e+005 1.956325672161e+005 1.956325672161e+005 1.956325672161e+005 1.956325672161e+005 1.956325672161e+005 1.956325672161e+005 1.956325672161e+005 1.923237501978e+005 1.923237501978e+005 1.923237501978e+005 1.923237501978e+005 1.923237501978e+005 1.923237501978e+005 1.923237501978e+005 1.923237501978e+005 1.923237501978e+005 1.889185075151e+005 1.889185075151e+005 1.889185075151e+005 1.889185075151e+005 1.889185075151e+005 1.889185075151e+005 1.889185075151e+005 1.889185075151e+005 1.889185075151e+005 1.854070693237e+005 1.854070693237e+005 1.854070693237e+005 1.854070693237e+005 1.854070693237e+005 1.854070693237e+005 1.854070693237e+005 1.854070693237e+005 1.854070693237e+005 1.817783623598e+005 1.817783623598e+005 1.817783623598e+005 1.817783623598e+005 1.817783623598e+005 1.817783623598e+005 1.817783623598e+005 1.817783623598e+005 1.817783623598e+005 1.780197604246e+005 1.780197604246e+005 1.780197604246e+005 1.780197604246e+005 1.780197604246e+005 1.780197604246e+005 1.780197604246e+005 1.780197604246e+005 1.780197604246e+005 1.741167712523e+005 1.741167712523e+005 1.741167712523e+005 1.741167712523e+005 1.741167712523e+005 1.741167712523e+005 1.741167712523e+005 1.741167712523e+005 1.741167712523e+005 1.700526389606e+005 1.700526389606e+005 1.700526389606e+005 1.700526389606e+005 1.700526389606e+005 1.700526389606e+005 1.700526389606e+005 1.700526389606e+005 1.700526389606e+005 1.658078328490e+005 1.658078328490e+005 1.658078328490e+005 1.658078328490e+005 1.658078328490e+005 1.658078328490e+005 1.658078328490e+005 1.658078328490e+005 1.658078328490e+005 1.613593807193e+005 1.613593807193e+005 1.613593807193e+005 1.613593807193e+005 1.613593807193e+005 1.613593807193e+005 1.613593807193e+005 1.613593807193e+005 1.613593807193e+005 1.566799857343e+005 1.566799857343e+005 1.566799857343e+005 1.566799857343e+005 1.566799857343e+005 1.566799857343e+005 1.566799857343e+005 1.566799857343e+005 1.566799857343e+005 1.517368361296e+005 1.517368361296e+005 1.517368361296e+005 1.517368361296e+005 1.517368361296e+005 1.517368361296e+005 1.517368361296e+005 1.517368361296e+005 1.517368361295e+005 1.464899693891e+005 1.464899693891e+005 1.464899693891e+005 1.464899693891e+005 1.464899693891e+005 1.464899693891e+005 1.464899693891e+005 1.464899693891e+005 1.464899693891e+005 1.408899720106e+005 1.408899720106e+005 1.408899720106e+005 1.408899720106e+005 1.408899720106e+005 1.408899720106e+005 1.408899720106e+005 1.408899720106e+005 1.408899720106e+005 1.348746562024e+005 1.348746562024e+005 1.348746562025e+005 1.348746562025e+005 1.348746562025e+005 1.348746562025e+005 1.348746562024e+005 1.348746562024e+005 1.348746562024e+005 1.283641064091e+005 1.283641064091e+005 1.283641064091e+005 1.283641064091e+005 1.283641064090e+005 1.283641064091e+005 1.283641064091e+005 1.283641064090e+005 1.283641064090e+005 1.212530229922e+005 1.212530229922e+005 1.212530229923e+005 1.212530229923e+005 1.212530229924e+005 1.212530229923e+005 1.212530229922e+005 1.212530229923e+005 1.212530229922e+005 1.133983858607e+005 1.133983858606e+005 1.133983858607e+005 1.133983858608e+005 1.133983858607e+005 1.133983858608e+005 1.133983858609e+005 1.133983858607e+005 1.133983858607e+005 1.045986250738e+005 1.045986250737e+005 1.045986250736e+005 1.045986250733e+005 1.045986250727e+005 1.045986250728e+005 1.045986250732e+005 1.045986250735e+005 1.045986250731e+005 9.455658435293e+004 9.455658435330e+004 9.455658435322e+004 9.455658435292e+004 9.455658435613e+004 9.455658435545e+004 9.455658435336e+004 9.455658435364e+004 9.455658435495e+004 8.280752104194e+004 8.280752104216e+004 8.280752104328e+004 8.280752104832e+004 8.280752104124e+004 8.280752104211e+004 8.280752104568e+004 8.280752104325e+004 8.280752104062e+004 6.856569317734e+004 6.856569316904e+004 6.856569316616e+004 6.856569314691e+004 6.856569315270e+004 6.856569315466e+004 6.856569315975e+004 6.856569316465e+004 6.856569316733e+004 5.037107711352e+004 5.037107715606e+004 5.037107714745e+004 5.037107718586e+004 5.037107718674e+004 5.037107717830e+004 5.037107714755e+004 5.037107715624e+004 5.037107714922e+004 2.528170108144e+004 2.528170087968e+004 2.528170091143e+004 2.528170078108e+004 2.528170076218e+004 2.528170080465e+004 2.528170093044e+004 2.528170086730e+004 2.528170094100e+004 -9.346170646901e+003 -9.346168516240e+003 -9.346168802678e+003 -9.346167874459e+003 -9.346167147725e+003 -9.346167556095e+003 -9.346169376841e+003 -9.346168174927e+003 -9.346169259375e+003 -4.592947616915e+004 -4.592947555776e+004 -4.592947594220e+004 -4.592947565206e+004 -4.592947535492e+004 -4.592947539451e+004 -4.592947650408e+004 -4.592947682926e+004 -4.592947659209e+004 -8.220644489816e+004 -8.220644717904e+004 -8.220644792906e+004 -8.220644896897e+004 -8.220644783217e+004 -8.220644873313e+004 -8.220645005436e+004 -8.220644875112e+004 -8.220644795703e+004 -1.181358857082e+005 -1.181358836650e+005 -1.181358863937e+005 -1.181358867454e+005 -1.181358856360e+005 -1.181358881129e+005 -1.181358867580e+005 -1.181358870056e+005 -1.181358864689e+005 -1.537235286809e+005 -1.537235273546e+005 -1.537235272781e+005 -1.537235271581e+005 -1.537235269208e+005 -1.537235288570e+005 -1.537235285715e+005 -1.537235291134e+005 -1.537235272142e+005 -1.889825348380e+005 -1.889825381905e+005 -1.889825387084e+005 -1.889825385853e+005 -1.889825380495e+005 -1.889825397276e+005 -1.889825394682e+005 -1.889825396528e+005 -1.889825402531e+005 -2.239244362895e+005 -2.239244397253e+005 -2.239244388432e+005 -2.239244389352e+005 -2.239244419805e+005 -2.239244400942e+005 -2.239244414936e+005 -2.239244415459e+005 -2.239244418459e+005 -2.585614259889e+005 -2.585614275431e+005 -2.585614280077e+005 -2.585614270034e+005 -2.585614284036e+005 -2.585614288827e+005 -2.585614300572e+005 -2.585614286246e+005 -2.585614288665e+005 -2.929058484044e+005 -2.929058472800e+005 -2.929058474936e+005 -2.929058488273e+005 -2.929058474896e+005 -2.929058483434e+005 -2.929058484721e+005 -2.929058480426e+005 -2.929058476166e+005 -3.269700866705e+005 -3.269700878346e+005 -3.269700862582e+005 -3.269700868869e+005 -3.269700867297e+005 -3.269700875138e+005 -3.269700876132e+005 -3.269700865423e+005 -3.269700877771e+005 -3.607665899822e+005 -3.607665870595e+005 -3.607665864017e+005 -3.607665878906e+005 -3.607665870276e+005 -3.607665862904e+005 -3.607665869187e+005 -3.607665863907e+005 -3.607665877769e+005 -3.943078512363e+005 -3.943078482151e+005 -3.943078467452e+005 -3.943078481075e+005 -3.943078482575e+005 -3.943078485837e+005 -3.943078484164e+005 -3.943078489016e+005 -3.943078468263e+005 -4.276064325647e+005 -4.276064315149e+005 -4.276064302007e+005 -4.276064310693e+005 -4.276064316583e+005 -4.276064314938e+005 -4.276064316726e+005 -4.276064304318e+005 -4.276064304228e+005 -4.606749520160e+005 -4.606749500893e+005 -4.606749489063e+005 -4.606749492576e+005 -4.606749487903e+005 -4.606749473148e+005 -4.606749490838e+005 -4.606749485229e+005 -4.606749479943e+005 -4.935260615656e+005 -4.935260587029e+005 -4.935260580185e+005 -4.935260561820e+005 -4.935260562820e+005 -4.935260560210e+005 -4.935260562891e+005 -4.935260549690e+005 -4.935260542484e+005 -5.261724465138e+005 -5.261724455802e+005 -5.261724445491e+005 -5.261724431828e+005 -5.261724425865e+005 -5.261724417058e+005 -5.261724418159e+005 -5.261724404255e+005 -5.261724409490e+005 -5.586268268741e+005 -5.586268267237e+005 -5.586268245554e+005 -5.586268258533e+005 -5.586268235544e+005 -5.586268231252e+005 -5.586268228475e+005 -5.586268217071e+005 -5.586268206131e+005 -5.909019437688e+005 -5.909019427781e+005 -5.909019437136e+005 -5.909019414382e+005 -5.909019411154e+005 -5.909019399646e+005 -5.909019397386e+005 -5.909019395453e+005 -5.909019384721e+005 -6.230105599195e+005 -6.230105614979e+005 -6.230105608617e+005 -6.230105606833e+005 -6.230105592529e+005 -6.230105588243e+005 -6.230105579693e+005 -6.230105565752e+005 -6.230105559007e+005 -6.549654659987e+005 -6.549654678786e+005 -6.549654686097e+005 -6.549654671456e+005 -6.549654655362e+005 -6.549654656399e+005 -6.549654640692e+005 -6.549654627202e+005 -6.549654625635e+005 -6.867794678259e+005 -6.867794701627e+005 -6.867794700165e+005 -6.867794699831e+005 -6.867794690121e+005 -6.867794672384e+005 -6.867794660489e+005 -6.867794657541e+005 -6.867794650783e+005 -7.184653973168e+005 -7.184653953750e+005 -7.184653962376e+005 -7.184653961725e+005 -7.184653958583e+005 -7.184653932988e+005 -7.184653922762e+005 -7.184653930755e+005 -7.184653927452e+005 -7.500360949318e+005 -7.500360943656e+005 -7.500360941290e+005 -7.500360940330e+005 -7.500360930645e+005 -7.500360908283e+005 -7.500360914737e+005 -7.500360908426e+005 -7.500360911737e+005 -7.815044292663e+005 -7.815044284888e+005 -7.815044284407e+005 -7.815044270116e+005 -7.815044268601e+005 -7.815044258161e+005 -7.815044255382e+005 -7.815044249482e+005 -7.815044256567e+005 -8.128832792139e+005 -8.128832783131e+005 -8.128832786839e+005 -8.128832783167e+005 -8.128832771820e+005 -8.128832770631e+005 -8.128832764431e+005 -8.128832763734e+005 -8.128832751801e+005 -8.441855389159e+005 -8.441855395867e+005 -8.441855403622e+005 -8.441855399017e+005 -8.441855391657e+005 -8.441855394663e+005 -8.441855388170e+005 -8.441855388512e+005 -8.441855385780e+005 -8.754241181494e+005 -8.754241189201e+005 -8.754241194636e+005 -8.754241188790e+005 -8.754241188335e+005 -8.754241190558e+005 -8.754241182401e+005 -8.754241187715e+005 -8.754241188416e+005 -9.066119317151e+005 -9.066119318289e+005 -9.066119321726e+005 -9.066119322982e+005 -9.066119311552e+005 -9.066119309949e+005 -9.066119312993e+005 -9.066119315650e+005 -9.066119314076e+005 -9.377618988234e+005 -9.377618996457e+005 -9.377619002776e+005 -9.377619002049e+005 -9.377618999004e+005 -9.377618992220e+005 -9.377618992220e+005 -9.377618993922e+005 -9.377618995044e+005 -9.688869476191e+005 -9.688869480511e+005 -9.688869483029e+005 -9.688869481528e+005 -9.688869482461e+005 -9.688869477870e+005 -9.688869477866e+005 -9.688869479505e+005 -9.688869477926e+005 -1.000000000000e+006 -1.000000000000e+006 -1.000000000000e+006 -1.000000000000e+006 -1.000000000000e+006 -1.000000000000e+006 -1.000000000000e+006 -1.000000000000e+006 -1.000000000000e+006 
        </DataArray>
        <DataArray type="Float64" Name="NONWET_PRESSURE" format="ascii">