<?xml version="1.0"?>
<VTKFile type="UnstructuredGrid" version="0.1" byte_order="LittleEndian">
  <UnstructuredGrid>
    <Piece NumberOfPoints="909" NumberOfCells="800">
      <Points>
        <DataArray type="Float64" NumberOfComponents="3" format="ascii">
          0.000000000000e+000 0.000000000000e+000 0.000000000000e+000
          2.000000000000e+000 0.000000000000e+000 0.000000000000e+000
          2.000000000000e+000 2.500000000000e+000 0.000000000000e+000
          0.000000000000e+000 2.500000000000e+000 0.000000000000e+000
          2.000000000000e+000 5.000000000000e+000 0.000000000000e+000
          0.000000000000e+000 5.000000000000e+000 0.000000000000e+000
          2.000000000000e+000 7.500000000000e+000 0.000000000000e+000
          0.000000000000e+000 7.500000000000e+000 0.000000000000e+000
          2.000000000000e+000 1.000000000000e+001 0.000000000000e+000
          0.000000000000e+000 1.000000000000e+001 0.000000000000e+000
          2.000000000000e+000 1.250000000000e+001 0.000000000000e+000
          0.000000000000e+000 1.250000000000e+001 0.000000000000e+000
          2.000000000000e+000 1.500000000000e+001 0.000000000000e+000
          0.000000000000e+000 1.500000000000e+001 0.000000000000e+000
          2.000000000000e+000 1.750000000000e+001 0.000000000000e+000
          0.000000000000e+000 1.750000000000e+001 0.000000000000e+000
          2.000000000000e+000 2.000000000000e+001 0.000000000000e+000
          0.000000000000e+000 2.000000000000e+001 0.000000000000e+000
          4.000000000000e+000 0.000000000000e+000 0.000000000000e+000
          4.000000000000e+000 2.500000000000e+000 0.000000000000e+000
          4.000000000000e+000 5.000000000000e+000 0.000000000000e+000
          4.000000000000e+000 7.500000000000e+000 0.000000000000e+000
          4.000000000000e+000 1.000000000000e+001 0.000000000000e+000
          4.000000000000e+000 1.250000000000e+001 0.000000000000e+000
          4.000000000000e+000 1.500000000000e+001 0.000000000000e+000
          4.000000000000e+000 1.750000000000e+001 0.000000000000e+000
          4.000000000000e+000 2.000000000000e+001 0.000000000000e+000
          6.000000000000e+000 0.000000000000e+000 0.000000000000e+000
          6.000000000000e+000 2.500000000000e+000 0.000000000000e+000
          6.000000000000e+000 5.000000000000e+000 0.000000000000e+000
          6.000000000000e+000 7.500000000000e+000 0.000000000000e+000
          6.000000000000e+000 1.000000000000e+001 0.000000000000e+000
          6.000000000000e+000 1.250000000000e+001 0.000000000000e+000
          6.000000000000e+000 1.500000000000e+001 0.000000000000e+000
          6.000000000000e+000 1.750000000000e+001 0.000000000000e+000
          6.000000000000e+000 2.000000000000e+001 0.000000000000e+000
          8.000000000000e+000 0.000000000000e+000 0.000000000000e+000
          8.000000000000e+000 2.500000000000e+000 0.000000000000e+000
          8.000000000000e+000 5.000000000000e+000 0.000000000000e+000
          8.000000000000e+000 7.500000000000e+000 0.000000000000e+000
          8.000000000000e+000 1.000000000000e+001 0.000000000000e+000
          8.000000000000e+000 1.250000000000e+001 0.000000000000e+000
          8.000000000000e+000 1.500000000000e+001 0.000000000000e+000
          8.000000000000e+000 1.750000000000e+001 0.000000000000e+000
          8.000000000000e+000 2.000000000000e+001 0.000000000000e+000
          1.000000000000e+001 0.000000000000e+000 0.000000000000e+000
          1.000000000000e+001 2.500000000000e+000 0.000000000000e+000
          1.000000000000e+001 5.000000000000e+000 0.000000000000e+000
          1.000000000000e+001 7.500000000000e+000 0.000000000000e+000
          1.000000000000e+001 1.000000000000e+001 0.000000000000e+000
          1.000000000000e+001 1.250000000000e+001 0.000000000000e+000
          1.000000000000e+001 1.500000000000e+001 0.000000000000e+000
          1.000000000000e+001 1.750000000000e+001 0.000000000000e+000
          1.000000000000e+001 2.000000000000e+001 0.000000000000e+000
          1.200000000000e+001 0.000000000000e+000 0.000000000000e+000
          1.200000000000e+001 2.500000000000e+000 0.000000000000e+000
          1.200000000000e+001 5.000000000000e+000 0.000000000000e+000
          1.200000000000e+001 7.500000000000e+000 0.000000000000e+000
          1.200000000000e+001 1.000000000000e+001 0.000000000000e+000
          1.200000000000e+001 1.250000000000e+001 0.000000000000e+000
          1.200000000000e+001 1.500000000000e+001 0.000000000000e+000
          1.200000000000e+001 1.750000000000e+001 0.000000000000e+000
          1.200000000000e+001 2.000000000000e+001 0.000000000000e+000
          1.400000000000e+001 0.000000000000e+000 0.000000000000e+000
          1.400000000000e+001 2.500000000000e+000 0.000000000000e+000
          1.400000000000e+001 5.000000000000e+000 0.000000000000e+000
          1.400000000000e+001 7.500000000000e+000 0.000000000000e+000
          1.400000000000e+001 1.000000000000e+001 0.000000000000e+000
          1.400000000000e+001 1.250000000000e+001 0.000000000000e+000
          1.400000000000e+001 1.500000000000e+001 0.000000000000e+000
          1.400000000000e+001 1.750000000000e+001 0.000000000000e+000
          1.400000000000e+001 2.000000000000e+001 0.000000000000e+000
          1.600000000000e+001 0.000000000000e+000 0.000000000000e+000
          1.600000000000e+001 2.500000000000e+000 0.000000000000e+000
          1.600000000000e+001 5.000000000000e+000 0.000000000000e+000
          1.600000000000e+001 7.500000000000e+000 0.000000000000e+000
          1.600000000000e+001 1.000000000000e+001 0.000000000000e+000
          1.600000000000e+001 1.250000000000e+001 0.000000000000e+000
          1.600000000000e+001 1.500000000000e+001 0.000000000000e+000
          1.600000000000e+001 1.750000000000e+001 0.000000000000e+000
          1.600000000000e+001 2.000000000000e+001 0.000000000000e+000
          1.800000000000e+001 0.000000000000e+000 0.000000000000e+000
          1.800000000000e+001 2.500000000000e+000 0.000000000000e+000
          1.800000000000e+001 5.000000000000e+000 0.000000000000e+000
          1.800000000000e+001 7.500000000000e+000 0.000000000000e+000
          1.800000000000e+001 1.000000000000e+001 0.000000000000e+000
          1.800000000000e+001 1.250000000000e+001 0.000000000000e+000
          1.800000000000e+001 1.500000000000e+001 0.000000000000e+000
          1.800000000000e+001 1.750000000000e+001 0.000000000000e+000
          1.800000000000e+001 2.000000000000e+001 0.000000000000e+000
          2.000000000000e+001 0.000000000000e+000 0.000000000000e+000
          2.000000000000e+001 2.500000000000e+000 0.000000000000e+000
          2.000000000000e+001 5.000000000000e+000 0.000000000000e+000
          2.000000000000e+001 7.500000000000e+000 0.000000000000e+000
          2.000000000000e+001 1.000000000000e+001 0.000000000000e+000
          2.000000000000e+001 1.250000000000e+001 0.000000000000e+000
          2.000000000000e+001 1.500000000000e+001 0.000000000000e+000
          2.000000000000e+001 1.750000000000e+001 0.000000000000e+000
          2.000000000000e+001 2.000000000000e+001 0.000000000000e+000
          2.200000000000e+001 0.000000000000e+000 0.000000000000e+000
          2.200000000000e+001 2.500000000000e+000 0.000000000000e+000
          2.200000000000e+001 5.000000000000e+000 0.000000000000e+000
          2.200000000000e+001 7.500000000000e+000 0.000000000000e+000
          2.200000000000e+001 1.000000000000e+001 0.000000000000e+000
          2.200000000000e+001 1.250000000000e+001 0.000000000000e+000
          2.200000000000e+001 1.500000000000e+001 0.000000000000e+000
          2.200000000000e+001 1.750000000000e+001 0.000000000000e+000
          2.200000000000e+001 2.000000000000e+001 0.000000000000e+000
          2.400000000000e+001 0.000000000000e+000 0.000000000000e+000
          2.400000000000e+001 2.500000000000e+000 0.000000000000e+000
          2.400000000000e+001 5.000000000000e+000 0.000000000000e+000
          2.400000000000e+001 7.500000000000e+000 0.000000000000e+000
          2.400000000000e+001 1.000000000000e+001 0.000000000000e+000
          2.400000000000e+001 1.250000000000e+001 0.000000000000e+000
          2.400000000000e+001 1.500000000000e+001 0.000000000000e+000
          2.400000000000e+001 1.750000000000e+001 0.000000000000e+000
          2.400000000000e+001 2.000000000000e+001 0.000000000000e+000
          2.600000000000e+001 0.000000000000e+000 0.000000000000e+000
          2.600000000000e+001 2.500000000000e+000 0.000000000000e+000
          2.600000000000e+001 5.000000000000e+000 0.000000000000e+000
          2.600000000000e+001 7.500000000000e+000 0.000000000000e+000
          2.600000000000e+001 1.000000000000e+001 0.000000000000e+000
          2.600000000000e+001 1.250000000000e+001 0.000000000000e+000
          2.600000000000e+001 1.500000000000e+001 0.000000000000e+000
          2.600000000000e+001 1.750000000000e+001 0.000000000000e+000
          2.600000000000e+001 2.000000000000e+001 0.000000000000e+000
          2.800000000000e+001 0.000000000000e+000 0.000000000000e+000
          2.800000000000e+001 2.500000000000e+000 0.000000000000e+000
          2.800000000000e+001 5.000000000000e+000 0.000000000000e+000
          2.800000000000e+001 7.500000000000e+000 0.000000000000e+000
          2.800000000000e+001 1.000000000000e+001 0.000000000000e+000
          2.800000000000e+001 1.250000000000e+001 0.000000000000e+000
          2.800000000000e+001 1.500000000000e+001 0.000000000000e+000
          2.800000000000e+001 1.750000000000e+001 0.000000000000e+000
          2.800000000000e+001 2.000000000000e+001 0.000000000000e+000
          3.000000000000e+001 0.000000000000e+000 0.000000000000e+000
          3.000000000000e+001 2.500000000000e+000 0.000000000000e+000
          3.000000000000e+001 5.000000000000e+000 0.000000000000e+000
          3.000000000000e+001 7.500000000000e+000 0.000000000000e+000
[...]
      <PointData Scalars="CAPILLARY_PRESSURE">
        <DataArray type="Float64" Name="CAPILLARY_PRESSURE" format="ascii">
          3.746822618433e+005 3.728039630260e+005 3.728039630260e+005 3.746822618433e+005 3.728039630260e+005 3.746822618433e+005 3.728039630260e+005 3.746822618432e+005 3.728039630260e+005 3.746822618433e+005 3.728039630260e+005 3.746822618433e+005 3.728039630260e+005 3.746822618433e+005 3.728039630260e+005 3.746822618433e+005 3.728039630260e+005 3.746822618433e+005 3.709172494271e+005 3.709172494271e+005 3.709172494271e+005 3.709172494270e+005 3.709172494271e+005 3.709172494271e+005 3.709172494271e+005 3.709172494271e+005 3.709172494271e+005 3.690218625278e+005 3.690218625278e+005 3.690218625278e+005 3.690218625278e+005 3.690218625278e+005 3.690218625278e+005 3.690218625278e+005 3.690218625278e+005 3.690218625278e+005 3.671174803478e+005 3.671174803478e+005 3.671174803478e+005 3.671174803478e+005 3.671174803478e+005 3.671174803478e+005 3.671174803478e+005 3.671174803478e+005 3.671174803478e+005 3.652037404127e+005 3.652037404127e+005 3.652037404127e+005 3.652037404127e+005 3.652037404127e+005 3.652037404127e+005 3.652037404127e+005 3.652037404127e+005 3.652037404127e+005 3.632802529431e+005 3.632802529431e+005 3.632802529431e+005 3.632802529431e+005 3.632802529431e+005 3.632802529431e+005 3.632802529431e+005 3.632802529431e+005 3.632802529431e+005 3.613466068385e+005 3.613466068386e+005 3.613466068386e+005 3.613466068386e+005 3.613466068386e+005 3.613466068385e+005 3.613466068386e+005 3.613466068385e+005 3.613466068385e+005 3.594023715110e+005 3.594023715110e+005 3.594023715110e+005 3.594023715110e+005 3.594023715110e+005 3.594023715110e+005 3.594023715110e+005 3.594023715110e+005 3.594023715110e+005 3.574470973397e+005 3.574470973398e+005 3.574470973397e+005 3.574470973397e+005 3.574470973397e+005 3.574470973397e+005 3.574470973397e+005 3.574470973397e+005 3.574470973397e+005 3.554803152580e+005 3.554803152580e+005 3.554803152580e+005 3.554803152580e+005 3.554803152580e+005 3.554803152580e+005 3.554803152580e+005 3.554803152580e+005 3.554803152580e+005 3.535015359337e+005 3.535015359337e+005 3.535015359337e+005 3.535015359337e+005 3.535015359337e+005 3.535015359337e+005 3.535015359337e+005 3.535015359336e+005 3.535015359337e+005 3.515102486887e+005 3.515102486887e+005 3.515102486887e+005 3.515102486887e+005 3.515102486887e+005 3.515102486887e+005 3.515102486887e+005 3.515102486887e+005 3.515102486887e+005 3.495059202904e+005 3.495059202903e+005 3.495059202903e+005 3.495059202903e+005 3.495059202903e+005 3.495059202903e+005 3.495059202903e+005 3.495059202903e+005 3.495059202903e+005 3.474879937322e+005 3.474879937322e+005 3.474879937322e+005 3.474879937322e+005 3.474879937322e+005 3.474879937322e+005 3.474879937322e+005 3.474879937322e+005 3.474879937322e+005 3.454558870401e+005 3.454558870401e+005 3.454558870401e+005 3.454558870401e+005 3.454558870401e+005 3.454558870401e+005 3.454558870401e+005 3.454558870401e+005 3.454558870401e+005 3.434089920821e+005 3.434089920821e+005 3.434089920821e+005 3.434089920821e+005 3.434089920821e+005 3.434089920822e+005 3.434089920821e+005 3.434089920822e+005 3.434089920821e+005 3.413466733467e+005 3.413466733467e+005 3.413466733467e+005 3.413466733467e+005 3.413466733467e+005 3.413466733467e+005 3.413466733467e+005 3.413466733467e+005 3.413466733467e+005 3.392682666500e+005 3.392682666500e+005 3.392682666500e+005 3.392682666500e+005 3.392682666500e+005 3.392682666500e+005 3.392682666500e+005 3.392682666501e+005 3.392682666500e+005 3.371730777459e+005 3.371730777458e+005 3.371730777459e+005 3.371730777458e+005 3.371730777458e+005 3.371730777459e+005 3.371730777459e+005 3.371730777459e+005 3.371730777459e+005 3.350603808174e+005 3.350603808174e+005 3.350603808174e+005 3.350603808174e+005 3.350603808174e+005 3.350603808174e+005 3.350603808174e+005 3.350603808174e+005 3.350603808174e+005 3.329294168361e+005 3.329294168362e+005 3.329294168361e+005 3.329294168361e+005 3.329294168361e+005 3.329294168361e+005 3.329294168361e+005 3.329294168361e+005 3.329294168361e+005 3.307793917755e+005 3.307793917755e+005 3.307793917755e+005 3.307793917755e+005 3.307793917754e+005 3.307793917755e+005 3.307793917755e+005 3.307793917754e+005 3.307793917754e+005 3.286094746661e+005 3.286094746661e+005 3.286094746661e+005 3.286094746661e+005 3.286094746661e+005 3.286094746661e+005 3.286094746660e+005 3.286094746661e+005 3.286094746661e+005 3.264187954800e+005 3.264187954801e+005 3.264187954800e+005 3.264187954800e+005 3.264187954801e+005 3.264187954800e+005 3.264187954801e+005 3.264187954800e+005 3.264187954801e+005 3.242064428272e+005 3.242064428272e+005 3.242064428272e+005 3.242064428272e+005 3.242064428272e+005 3.242064428272e+005 3.242064428272e+005 3.242064428272e+005 3.242064428271e+005 3.219714614462e+005 3.219714614462e+005 3.219714614462e+005 3.219714614462e+005 3.219714614462e+005 3.219714614462e+005 3.219714614462e+005 3.219714614462e+005 3.219714614462e+005 3.197128494683e+005 3.197128494683e+005 3.197128494683e+005 3.197128494683e+005 3.197128494683e+005 3.197128494683e+005 3.197128494683e+005 3.197128494683e+005 3.197128494683e+005 3.174295554302e+005 3.174295554302e+005 3.174295554302e+005 3.174295554302e+005 3.174295554302e+005 3.174295554302e+005 3.174295554302e+005 3.174295554302e+005 3.174295554302e+005 3.151204750077e+005 3.151204750076e+005 3.151204750076e+005 3.151204750076e+005 3.151204750076e+005 3.151204750076e+005 3.151204750076e+005 3.151204750076e+005 3.151204750077e+005 3.127844474385e+005 3.127844474385e+005 3.127844474385e+005 3.127844474385e+005 3.127844474385e+005 3.127844474385e+005 3.127844474385e+005 3.127844474385e+005 3.127844474386e+005 3.104202515996e+005 3.104202515996e+005 3.104202515996e+005 3.104202515996e+005 3.104202515996e+005 3.104202515996e+005 3.104202515996e+005 3.104202515996e+005 3.104202515996e+005 3.080266016955e+005 3.080266016955e+005 3.080266016955e+005 3.080266016955e+005 3.080266016955e+005 3.080266016955e+005 3.080266016955e+005 3.080266016955e+005 3.080266016955e+005 3.056021425133e+005 3.056021425134e+005 3.056021425134e+005 3.056021425133e+005 3.056021425134e+005 3.056021425133e+005 3.056021425134e+005 3.056021425133e+005 3.056021425134e+005 3.031454441902e+005 3.031454441902e+005 3.031454441902e+005 3.031454441902e+005 3.031454441902e+005 3.031454441902e+005 3.031454441902e+005 3.031454441902e+005 3.031454441902e+005 3.006549964306e+005 3.006549964307e+005 3.006549964306e+005 3.006549964307e+005 3.006549964306e+005 3.006549964307e+005 3.006549964306e+005 3.006549964306e+005 3.006549964306e+005 2.981292021060e+005 2.981292021059e+005 2.981292021060e+005 2.981292021060e+005 2.981292021059e+005 2.981292021059e+005 2.981292021059e+005 2.981292021060e+005 2.981292021060e+005 2.955663701510e+005 2.955663701510e+005 2.955663701510e+005 2.955663701510e+005 2.955663701510e+005 2.955663701510e+005 2.955663701510e+005 2.955663701510e+005 2.955663701510e+005 2.929647076675e+005 2.929647076674e+005 2.929647076675e+005 2.929647076675e+005 2.929647076675e+005 2.929647076675e+005 2.929647076675e+005 2.929647076675e+005 2.929647076675e+005 2.903223111215e+005 2.903223111215e+005 2.903223111215e+005 2.903223111216e+005 2.903223111215e+005 2.903223111215e+005 2.903223111215e+005 2.903223111215e+005 2.903223111215e+005 2.876371565098e+005 2.876371565098e+005 2.876371565098e+005 2.876371565098e+005 2.876371565098e+005 2.876371565098e+005 2.876371565098e+005 2.876371565098e+005 2.876371565098e+005 2.849070883443e+005 2.849070883443e+005 2.849070883443e+005 2.849070883443e+005 2.849070883443e+005 2.849070883443e+005 2.849070883443e+005 2.849070883443e+005 2.849070883443e+005 2.821298072806e+005 2.821298072806e+005 2.821298072806e+005 2.821298072806e+005 2.821298072806e+005 2.821298072806e+005 2.821298072806e+005 2.821298072806e+005 2.821298072806e+005 2.793028561838e+005 2.793028561838e+005 2.793028561838e+005 2.793028561838e+005 2.793028561838e+005 2.793028561838e+005 2.793028561838e+005 2.793028561838e+005 2.793028561838e+005 2.764236043863e+005 2.764236043864e+005 2.764236043863e+005 2.764236043864e+005 2.764236043864e+005 2.764236043863e+005 2.764236043864e+005 2.764236043864e+005 2.764236043863e+005 2.734892298489e+005 2.734892298489e+005 2.734892298489e+005 2.734892298489e+005 2.734892298489e+005 2.734892298489e+005 2.734892298489e+005 2.734892298489e+005 2.734892298489e+005 2.704966988756e+005 2.704966988756e+005 2.704966988756e+005 2.704966988756e+005 2.704966988756e+005 2.704966988756e+005 2.704966988756e+005 2.704966988756e+005 2.704966988756e+005 2.674427429683e+005 2.674427429683e+005 2.674427429684e+005 2.674427429683e+005 2.674427429683e+005 2.674427429683e+005 2.674427429684e+005 2.674427429683e+005 2.674427429684e+005 2.643238323168e+005 2.643238323168e+005 2.643238323168e+005 2.643238323168e+005 2.643238323168e+005 2.643238323169e+005 2.643238323168e+005 2.643238323168e+005 2.643238323168e+005 2.611361453146e+005 2.611361453146e+005 2.611361453146e+005 2.611361453146e+005 2.611361453146e+005 2.611361453146e+005 2.611361453146e+005 2.611361453146e+005 2.611361453146e+005 2.578755333586e+005 2.578755333587e+005 2.578755333587e+005 2.578755333587e+005 2.578755333587e+005 2.578755333587e+005 2.578755333587e+005 2.578755333587e+005 2.578755333587e+005 2.545374800179e+005 2.545374800179e+005 2.545374800179e+005 2.545374800179e+005 2.545374800179e+005 2.545374800179e+005 2.545374800179e+005 2.545374800179e+005 2.545374800179e+005 2.511170534449e+005 2.511170534449e+005 2.511170534449e+005 2.511170534449e+005 2.511170534449e+005 2.511170534449e+005 2.511170534449e+005 2.511170534449e+005 2.511170534449e+005 2.476088506278e+005 2.476088506279e+005 2.476088506279e+005 2.476088506278e+005 2.476088506278e+005 2.476088506279e+005 2.476088506278e+005 2.476088506278e+005 2.476088506278e+005 2.440069317273e+005 2.440069317273e+005 2.440069317273e+005 2.440069317273e+005 2.440069317273e+005 2.440069317273e+005 2.440069317273e+005 2.440069317273e+005 2.440069317273e+005 2.403047422824e+005 2.403047422825e+005 2.403047422825e+005 2.403047422824e+005 2.403047422825e+005 2.403047422825e+005 2.403047422825e+005 2.403047422825e+005 2.403047422824e+005 2.364950204685e+005 2.364950204685e+005 2.364950204685e+005 2.364950204685e+005 2.364950204685e+005 2.364950204685e+005 2.364950204685e+005 2.364950204685e+005 2.364950204685e+005 2.325696857879e+005 2.325696857879e+005 2.325696857879e+005 2.325696857879e+005 2.325696857878e+005 2.325696857878e+005 2.325696857879e+005 2.325696857878e+005 2.325696857879e+005 2.285197045095e+005 2.285197045094e+005 2.285197045094e+005 2.285197045094e+005 2.285197045095e+005 2.285197045094e+005 2.285197045094e+005 2.285197045094e+005 2.285197045094e+005 2.243349257204e+005 2.243349257205e+005 2.243349257204e+005 2.243349257204e+005 2.243349257204e+005 2.243349257204e+005 2.243349257204e+005 2.243349257204e+005 2.243349257204e+005 2.200038798650e+005 2.200038798650e+005 2.200038798649e+005 2.200038798650e+005 2.200038798650e+005 2.200038798650e+005 2.200038798649e+005 2.200038798650e+005 2.200038798650e+005 2.155135288707e+005 2.155135288707e+005 2.155135288707e+005 2.155135288707e+005 2.155135288707e+005 2.155135288707e+005 2.155135288707e+005 2.155135288707e+005 2.155135288707e+005 2.108489530397e+005 2.108489530397e+005 2.108489530397e+005 2.108489530397e+005 2.108489530397e+005 2.108489530397e+005 2.108489530397e+005 2.108489530397e+005 2.108489530397e+005 2.059929542263e+005 2.059929542263e+005 2.059929542262e+005 2.059929542262e+005 2.059929542262e+005 2.059929542262e+005 2.059929542263e+005 2.059929542262e+005 2.059929542262e+005 2.009255465345e+005 2.009255465345e+005 2.009255465345e+005 2.009255465345e+005 2.009255465345e+005 2.009255465344e+005 2.009255465344e+005 2.009255465344e+005 2.009255465344e+005 1.956232933679e+005 1.956232933679e+005 1.956232933679e+005 1.956232933679e+005 1.956232933679e+005 1.956232933679e+005 1.956232933679e+005 1.956232933678e+005 1.956232933679e+005 1.900584307257e+005 1.900584307257e+005 1.900584307257e+005 1.900584307257e+005 1.900584307257e+005 1.900584307256e+005 1.900584307256e+005 1.900584307256e+005 1.900584307256e+005 1.841976870486e+005 1.841976870487e+005 1.841976870486e+005 1.841976870487e+005 1.841976870486e+005 1.841976870486e+005 1.841976870486e+005 1.841976870486e+005 1.841976870486e+005 1.780006624853e+005 1.780006624853e+005 1.780006624853e+005 1.780006624853e+005 1.780006624853e+005 1.780006624852e+005 1.780006624852e+005 1.780006624852e+005 1.780006624852e+005 1.714175521091e+005 1.714175521091e+005 1.714175521091e+005 1.714175521090e+005 1.714175521090e+005 1.714175521090e+005 1.714175521090e+005 1.714175521089e+005 1.714175521089e+005 1.643858635344e+005 1.643858635344e+005 1.643858635344e+005 1.643858635344e+005 1.643858635343e+005 1.643858635343e+005 1.643858635343e+005 1.643858635342e+005 1.643858635343e+005 1.568255398701e+005 1.568255398701e+005 1.568255398701e+005 1.568255398701e+005 1.568255398700e+005 1.568255398700e+005 1.568255398699e+005 1.568255398699e+005 1.568255398699e+005 1.486314493563e+005 1.486314493564e+005 1.486314493563e+005 1.486314493563e+005 1.486314493563e+005 1.486314493562e+005 1.486314493562e+005 1.486314493561e+005 1.486314493561e+005 1.396613104005e+005 1.396613104004e+005 1.396613104004e+005 1.396613104004e+005 1.396613104003e+005 1.396613104003e+005 1.396613104002e+005 1.396613104002e+005 1.396613104002e+005 1.297152321515e+005 1.297152321515e+005 1.297152321514e+005 1.297152321514e+005 1.297152321514e+005 1.297152321513e+005 1.297152321512e+005 1.297152321512e+005 1.297152321512e+005 1.184987259039e+005 1.184987259039e+005 1.184987259038e+005 1.184987259038e+005 1.184987259038e+005 1.184987259037e+005 1.184987259037e+005 1.184987259036e+005 1.184987259035e+005 1.055500484012e+005 1.055500484016e+005 1.055500484012e+005 1.055500484012e+005 1.055500484010e+005 1.055500484011e+005 1.055500484008e+005 1.055500484009e+005 1.055500484009e+005 9.008114612250e+004 9.008114612111e+004 9.008114612201e+004 9.008114612132e+004 9.008114612201e+004 9.008114612085e+004 9.008114612155e+004 9.008114612123e+004 9.008114612107e+004 7.057668266578e+004 7.057668266959e+004 7.057668266541e+004 7.057668266633e+004 7.057668266303e+004 7.057668266637e+004 7.057668266341e+004 7.057668266522e+004 7.057668266605e+004 4.361156390670e+004 4.361156389998e+004 4.361156391325e+004 4.361156389911e+004 4.361156390436e+004 4.361156389517e+004 4.361156390671e+004 4.361156390143e+004 4.361156391386e+004 1.731451374979e+003 1.731451397608e+003 1.731451373109e+003 1.731451379654e+003 1.731451342497e+003 1.731451392345e+003 1.731451365924e+003 1.731451379481e+003 1.731451370304e+003 -4.850489214033e+004 -4.850488948018e+004 -4.850488823306e+004 -4.850488964834e+004 -4.850488994816e+004 -4.850489042892e+004 -4.850489052499e+004 -4.850489082312e+004 -4.850488860581e+004 -9.871901567424e+004 -9.871901469686e+004 -9.871901351814e+004 -9.871901449144e+004 -9.871901518418e+004 -9.871901514802e+004 -9.871901540239e+004 -9.871901415053e+004 -9.871901410433e+004 -1.489137375435e+005 -1.489137356490e+005 -1.489137345399e+005 -1.489137349744e+005 -1.489137345929e+005 -1.489137331957e+005 -1.489137350160e+005 -1.489137344695e+005 -1.489137339410e+005 -1.990908034405e+005 -1.990908005955e+005 -1.990907999567e+005 -1.990907981803e+005 -1.990907983423e+005 -1.990907981361e+005 -1.990907984439e+005 -1.990907971427e+005 -1.990907964266e+005 -2.492512861479e+005 -2.492512852251e+005 -2.492512842238e+005 -2.492512829009e+005 -2.492512823482e+005 -2.492512815073e+005 -2.492512816483e+005 -2.492512802748e+005 -2.492512808035e+005 -2.993959064916e+005 -2.993959063493e+005 -2.993959042020e+005 -2.993959055289e+005 -2.993959032622e+005 -2.993959028621e+005 -2.993959026073e+005 -2.993959014805e+005 -2.993959003920e+005 -3.495251897667e+005 -3.495251887812e+005 -3.495251897313e+005 -3.495251874771e+005 -3.495251871768e+005 -3.495251860471e+005 -3.495251858384e+005 -3.495251856562e+005 -3.495251845872e+005 -3.996395619396e+005 -3.996395635217e+005 -3.996395628951e+005 -3.996395627319e+005 -3.996395613178e+005 -3.996395609046e+005 -3.996395600625e+005 -3.996395586771e+005 -3.996395580050e+005 -4.497394112996e+005 -4.497394131815e+005 -4.497394139195e+005 -4.497394124671e+005 -4.497394108682e+005 -4.497394109835e+005 -4.497394094221e+005 -4.497394080796e+005 -4.497394079253e+005 -4.998251178522e+005 -4.998251201899e+005 -4.998251200486e+005 -4.998251200222e+005 -4.998251190601e+005 -4.998251172943e+005 -4.998251161126e+005 -4.998251158223e+005 -4.998251151482e+005 -5.498970775061e+005 -5.498970755648e+005 -5.498970764309e+005 -5.498970763706e+005 -5.498970760625e+005 -5.498970735089e+005 -5.498970724916e+005 -5.498970732943e+005 -5.498970729660e+005 -5.999556946585e+005 -5.999556940934e+005 -5.999556938590e+005 -5.999556937663e+005 -5.999556928023e+005 -5.999556905700e+005 -5.999556912195e+005 -5.999556905910e+005 -5.999556909231e+005 -6.500014076567e+005 -6.500014068789e+005 -6.500014068325e+005 -6.500014054062e+005 -6.500014052570e+005 -6.500014042164e+005 -6.500014039409e+005 -6.500014033529e+005 -6.500014040622e+005 -7.000346716576e+005 -7.000346707571e+005 -7.000346711284e+005 -7.000346707630e+005 -7.000346696306e+005 -7.000346695139e+005 -7.000346688954e+005 -7.000346688271e+005 -7.000346676340e+005 -7.500559608362e+005 -7.500559615074e+005 -7.500559622834e+005 -7.500559618241e+005 -7.500559610898e+005 -7.500559613923e+005 -7.500559607439e+005 -7.500559607789e+005 -7.500559605061e+005 -8.000657650773e+005 -8.000657658479e+005 -8.000657663919e+005 -8.000657658084e+005 -8.000657657643e+005 -8.000657659879e+005 -8.000657651731e+005 -8.000657657047e+005 -8.000657657747e+005 -8.500645765575e+005 -8.500645766716e+005 -8.500645770152e+005 -8.500645771418e+005 -8.500645759999e+005 -8.500645758404e+005 -8.500645761454e+005 -8.500645764107e+005 -8.500645762539e+005 -9.000528880608e+005 -9.000528888830e+005 -9.000528895149e+005 -9.000528894427e+005 -9.000528891392e+005 -9.000528884616e+005 -9.000528884614e+005 -9.000528886318e+005 -9.000528887441e+005 -9.500311983743e+005 -9.500311988060e+005 -9.500311990578e+005 -9.500311989080e+005 -9.500311990015e+005 -9.500311985428e+005 -9.500311985424e+005 -9.500311987062e+005 -9.500311985485e+005 -1.000000000000e+006 -1.000000000000e+006 -1.000000000000e+006 -1.000000000000e+006 -1.000000000000e+006 -1.000000000000e+006 -1.000000000000e+006 -1.000000000000e+006 -1.000000000000e+006 
        </DataArray>
        <DataArray type="Float64" Name="NONWET_PRESSURE" format="ascii">