<?xml version="1.0"?>
<VTKFile type="UnstructuredGrid" version="0.1" byte_order="LittleEndian">
  <UnstructuredGrid>
    <Piece NumberOfPoints="909" NumberOfCells="800">
      <Points>
        <DataArray type="Float64" NumberOfComponents="3" format="ascii">
          0.000000000000e+000 0.000000000000e+000 0.000000000000e+000
          2.000000000000e+000 0.000000000000e+000 0.000000000000e+000
          2.000000000000e+000 2.500000000000e+000 0.000000000000e+000
          0.000000000000e+000 2.500000000000e+000 0.000000000000e+000
          2.000000000000e+000 5.000000000000e+000 0.000000000000e+000
          0.000000000000e+000 5.000000000000e+000 0.000000000000e+000
          2.000000000000e+000 7.500000000000e+000 0.000000000000e+000
          0.000000000000e+000 7.500000000000e+000 0.000000000000e+000
          2.000000000000e+000 1.000000000000e+001 0.000000000000e+000
          0.000000000000e+000 1.000000000000e+001 0.000000000000e+000
          2.000000000000e+000 1.250000000000e+001 0.000000000000e+000
          0.000000000000e+000 1.250000000000e+001 0.000000000000e+000
          2.000000000000e+000 1.500000000000e+001 0.000000000000e+000
          0.000000000000e+000 1.500000000000e+001 0.000000000000e+000
          2.000000000000e+000 1.750000000000e+001 0.000000000000e+000
          0.000000000000e+000 1.750000000000e+001 0.000000000000e+000
          2.000000000000e+000 2.000000000000e+001 0.000000000000e+000
          0.000000000000e+000 2.000000000000e+001 0.000000000000e+000
          4.000000000000e+000 0.000000000000e+000 0.000000000000e+000
          4.000000000000e+000 2.500000000000e+000 0.000000000000e+000
          4.000000000000e+000 5.000000000000e+000 0.000000000000e+000
          4.000000000000e+000 7.500000000000e+000 0.000000000000e+000
          4.000000000000e+000 1.000000000000e+001 0.000000000000e+000
          4.000000000000e+000 1.250000000000e+001 0.000000000000e+000
          4.000000000000e+000 1.500000000000e+001 0.000000000000e+000
          4.000000000000e+000 1.750000000000e+001 0.000000000000e+000
          4.000000000000e+000 2.000000000000e+001 0.000000000000e+000
          6.000000000000e+000 0.000000000000e+000 0.000000000000e+000
          6.000000000000e+000 2.500000000000e+000 0.000000000000e+000
          6.000000000000e+000 5.000000000000e+000 0.000000000000e+000
          6.000000000000e+000 7.500000000000e+000 0.000000000000e+000
          6.000000000000e+000 1.000000000000e+001 0.000000000000e+000
          6.000000000000e+000 1.250000000000e+001 0.000000000000e+000
          6.000000000000e+000 1.500000000000e+001 0.000000000000e+000
          6.000000000000e+000 1.750000000000e+001 0.000000000000e+000
          6.000000000000e+000 2.000000000000e+001 0.000000000000e+000
          8.000000000000e+000 0.000000000000e+000 0.000000000000e+000
          8.000000000000e+000 2.500000000000e+000 0.000000000000e+000
          8.000000000000e+000 5.000000000000e+000 0.000000000000e+000
          8.000000000000e+000 7.500000000000e+000 0.000000000000e+000
          8.000000000000e+000 1.000000000000e+001 0.000000000000e+000
          8.000000000000e+000 1.250000000000e+001 0.000000000000e+000
          8.000000000000e+000 1.500000000000e+001 0.000000000000e+000
          8.000000000000e+000 1.750000000000e+001 0.000000000000e+000
          8.000000000000e+000 2.000000000000e+001 0.000000000000e+000
          1.000000000000e+001 0.000000000000e+000 0.000000000000e+000
          1.000000000000e+001 2.500000000000e+000 0.000000000000e+000
          1.000000000000e+001 5.000000000000e+000 0.000000000000e+000
          1.000000000000e+001 7.500000000000e+000 0.000000000000e+000
          1.000000000000e+001 1.000000000000e+001 0.000000000000e+000
          1.000000000000e+001 1.250000000000e+001 0.000000000000e+000
          1.000000000000e+001 1.500000000000e+001 0.000000000000e+000
          1.000000000000e+001 1.750000000000e+001 0.000000000000e+000
          1.000000000000e+001 2.000000000000e+001 0.000000000000e+000
          1.200000000000e+001 0.000000000000e+000 0.000000000000e+000
          1.200000000000e+001 2.500000000000e+000 0.000000000000e+000
          1.200000000000e+001 5.000000000000e+000 0.000000000000e+000
          1.200000000000e+001 7.500000000000e+000 0.000000000000e+000
          1.200000000000e+001 1.000000000000e+001 0.000000000000e+000
          1.200000000000e+001 1.250000000000e+001 0.000000000000e+000
          1.200000000000e+001 1.500000000000e+001 0.000000000000e+000
          1.200000000000e+001 1.750000000000e+001 0.000000000000e+000
          1.200000000000e+001 2.000000000000e+001 0.000000000000e+000
          1.400000000000e+001 0.000000000000e+000 0.000000000000e+000
          1.400000000000e+001 2.500000000000e+000 0.000000000000e+000
          1.400000000000e+001 5.000000000000e+000 0.000000000000e+000
          1.400000000000e+001 7.500000000000e+000 0.000000000000e+000
          1.400000000000e+001 1.000000000000e+001 0.000000000000e+000
          1.400000000000e+001 1.250000000000e+001 0.000000000000e+000
          1.400000000000e+001 1.500000000000e+001 0.000000000000e+000
          1.400000000000e+001 1.750000000000e+001 0.000000000000e+000
          1.400000000000e+001 2.000000000000e+001 0.000000000000e+000
          1.600000000000e+001 0.000000000000e+000 0.000000000000e+000
          1.600000000000e+001 2.500000000000e+000 0.000000000000e+000
          1.600000000000e+001 5.000000000000e+000 0.000000000000e+000
          1.600000000000e+001 7.500000000000e+000 0.000000000000e+000
          1.600000000000e+001 1.000000000000e+001 0.000000000000e+000
          1.600000000000e+001 1.250000000000e+001 0.000000000000e+000
          1.600000000000e+001 1.500000000000e+001 0.000000000000e+000
          1.600000000000e+001 1.750000000000e+001 0.000000000000e+000
          1.600000000000e+001 2.000000000000e+001 0.000000000000e+000
          1.800000000000e+001 0.000000000000e+000 0.000000000000e+000
          1.800000000000e+001 2.500000000000e+000 0.000000000000e+000
          1.800000000000e+001 5.000000000000e+000 0.000000000000e+000
          1.800000000000e+001 7.500000000000e+000 0.000000000000e+000
          1.800000000000e+001 1.000000000000e+001 0.000000000000e+000
          1.800000000000e+001 1.250000000000e+001 0.000000000000e+000
          1.800000000000e+001 1.500000000000e+001 0.000000000000e+000
          1.800000000000e+001 1.750000000000e+001 0.000000000000e+000
          1.800000000000e+001 2.000000000000e+001 0.000000000000e+000
          2.000000000000e+001 0.000000000000e+000 0.000000000000e+000
          2.000000000000e+001 2.500000000000e+000 0.000000000000e+000
          2.000000000000e+001 5.000000000000e+000 0.000000000000e+000
          2.000000000000e+001 7.500000000000e+000 0.000000000000e+000
          2.000000000000e+001 1.000000000000e+001 0.000000000000e+000
          2.000000000000e+001 1.250000000000e+001 0.000000000000e+000
          2.000000000000e+001 1.500000000000e+001 0.000000000000e+000
          2.000000000000e+001 1.750000000000e+001 0.000000000000e+000
          2.000000000000e+001 2.000000000000e+001 0.000000000000e+000
          2.200000000000e+001 0.000000000000e+000 0.000000000000e+000
          2.200000000000e+001 2.500000000000e+000 0.000000000000e+000
          2.200000000000e+001 5.000000000000e+000 0.000000000000e+000
          2.200000000000e+001 7.500000000000e+000 0.000000000000e+000
          2.200000000000e+001 1.000000000000e+001 0.000000000000e+000
          2.200000000000e+001 1.250000000000e+001 0.000000000000e+000
          2.200000000000e+001 1.500000000000e+001 0.000000000000e+000
          2.200000000000e+001 1.750000000000e+001 0.000000000000e+000
          2.200000000000e+001 2.000000000000e+001 0.000000000000e+000
          2.400000000000e+001 0.000000000000e+000 0.000000000000e+000
          2.400000000000e+001 2.500000000000e+000 0.000000000000e+000
          2.400000000000e+001 5.000000000000e+000 0.000000000000e+000
          2.400000000000e+001 7.500000000000e+000 0.000000000000e+000
          2.400000000000e+001 1.000000000000e+001 0.000000000000e+000
          2.400000000000e+001 1.250000000000e+001 0.000000000000e+000
          2.400000000000e+001 1.500000000000e+001 0.000000000000e+000
          2.400000000000e+001 1.750000000000e+001 0.000000000000e+000
          2.400000000000e+001 2.000000000000e+001 0.000000000000e+000
          2.600000000000e+001 0.000000000000e+000 0.000000000000e+000
          2.600000000000e+001 2.500000000000e+000 0.000000000000e+000
          2.600000000000e+001 5.000000000000e+000 0.000000000000e+000
          2.600000000000e+001 7.500000000000e+000 0.000000000000e+000
          2.600000000000e+001 1.000000000000e+001 0.000000000000e+000
          2.600000000000e+001 1.250000000000e+001 0.000000000000e+000
          2.600000000000e+001 1.500000000000e+001 0.000000000000e+000
          2.600000000000e+001 1.750000000000e+001 0.000000000000e+000
          2.600000000000e+001 2.000000000000e+001 0.000000000000e+000
          2.800000000000e+001 0.000000000000e+000 0.000000000000e+000
          2.800000000000e+001 2.500000000000e+000 0.000000000000e+000
          2.800000000000e+001 5.000000000000e+000 0.000000000000e+000
          2.800000000000e+001 7.500000000000e+000 0.000000000000e+000
          2.800000000000e+001 1.000000000000e+001 0.000000000000e+000
          2.800000000000e+001 1.250000000000e+001 0.000000000000e+000
          2.800000000000e+001 1.500000000000e+001 0.000000000000e+000
          2.800000000000e+001 1.750000000000e+001 0.000000000000e+000
          2.800000000000e+001 2.000000000000e+001 0.000000000000e+000
          3.000000000000e+001 0.000000000000e+000 0.000000000000e+000
          3.000000000000e+001 2.500000000000e+000 0.000000000000e+000
          3.000000000000e+001 5.000000000000e+000 0.000000000000e+000
          3.000000000000e+001 7.500000000000e+000 0.000000000000e+000
[...]
      <PointData Scalars="CAPILLARY_PRESSURE">
        <DataArray type="Float64" Name="CAPILLARY_PRESSURE" format="ascii">
          3.800040978590e+005 3.781619431553e+005 3.781619431554e+005 3.800040978589e+005 3.781619431554e+005 3.800040978591e+005 3.781619431555e+005 3.800040978592e+005 3.781619431554e+005 3.800040978591e+005 3.781619431556e+005 3.800040978591e+005 3.781619431555e+005 3.800040978591e+005 3.781619431554e+005 3.800040978592e+005 3.781619431552e+005 3.800040978587e+005 3.763070964351e+005 3.763070964351e+005 3.763070964349e+005 3.763070964350e+005 3.763070964350e+005 3.763070964351e+005 3.763070964351e+005 3.763070964350e+005 3.763070964351e+005 3.744407296052e+005 3.744407296052e+005 3.744407296050e+005 3.744407296051e+005 3.744407296052e+005 3.744407296051e+005 3.744407296050e+005 3.744407296051e+005 3.744407296053e+005 3.725625030176e+005 3.725625030173e+005 3.725625030173e+005 3.725625030173e+005 3.725625030174e+005 3.725625030174e+005 3.725625030174e+005 3.725625030174e+005 3.725625030174e+005 3.706720452235e+005 3.706720452234e+005 3.706720452234e+005 3.706720452234e+005 3.706720452234e+005 3.706720452233e+005 3.706720452234e+005 3.706720452235e+005 3.706720452235e+005 3.687690014825e+005 3.687690014827e+005 3.687690014826e+005 3.687690014828e+005 3.687690014825e+005 3.687690014826e+005 3.687690014826e+005 3.687690014825e+005 3.687690014826e+005 3.668529902964e+005 3.668529902964e+005 3.668529902965e+005 3.668529902965e+005 3.668529902964e+005 3.668529902964e+005 3.668529902963e+005 3.668529902964e+005 3.668529902966e+005 3.649236005952e+005 3.649236005951e+005 3.649236005952e+005 3.649236005953e+005 3.649236005952e+005 3.649236005952e+005 3.649236005951e+005 3.649236005953e+005 3.649236005954e+005 3.629803976438e+005 3.629803976438e+005 3.629803976437e+005 3.629803976438e+005 3.629803976439e+005 3.629803976437e+005 3.629803976437e+005 3.629803976437e+005 3.629803976439e+005 3.610229265560e+005 3.610229265561e+005 3.610229265563e+005 3.610229265561e+005 3.610229265562e+005 3.610229265562e+005 3.610229265561e+005 3.610229265562e+005 3.610229265562e+005 3.590507135593e+005 3.590507135594e+005 3.590507135593e+005 3.590507135595e+005 3.590507135594e+005 3.590507135593e+005 3.590507135595e+005 3.590507135593e+005 3.590507135595e+005 3.570632649453e+005 3.570632649456e+005 3.570632649454e+005 3.570632649456e+005 3.570632649454e+005 3.570632649457e+005 3.570632649454e+005 3.570632649455e+005 3.570632649456e+005 3.550600661243e+005 3.550600661243e+005 3.550600661244e+005 3.550600661242e+005 3.550600661245e+005 3.550600661244e+005 3.550600661244e+005 3.550600661243e+005 3.550600661241e+005 3.530405806301e+005 3.530405806300e+005 3.530405806300e+005 3.530405806300e+005 3.530405806300e+005 3.530405806300e+005 3.530405806301e+005 3.530405806297e+005 3.530405806300e+005 3.510042490761e+005 3.510042490760e+005 3.510042490759e+005 3.510042490760e+005 3.510042490760e+005 3.510042490759e+005 3.510042490759e+005 3.510042490760e+005 3.510042490760e+005 3.489504880366e+005 3.489504880368e+005 3.489504880367e+005 3.489504880367e+005 3.489504880366e+005 3.489504880367e+005 3.489504880368e+005 3.489504880368e+005 3.489504880367e+005 3.468786888175e+005 3.468786888173e+005 3.468786888177e+005 3.468786888173e+005 3.468786888175e+005 3.468786888173e+005 3.468786888175e+005 3.468786888173e+005 3.468786888176e+005 3.447882161068e+005 3.447882161069e+005 3.447882161069e+005 3.447882161070e+005 3.447882161068e+005 3.447882161069e+005 3.447882161068e+005 3.447882161068e+005 3.447882161069e+005 3.426784065095e+005 3.426784065095e+005 3.426784065094e+005 3.426784065093e+005 3.426784065094e+005 3.426784065094e+005 3.426784065097e+005 3.426784065093e+005 3.426784065094e+005 3.405485669669e+005 3.405485669670e+005 3.405485669671e+005 3.405485669669e+005 3.405485669670e+005 3.405485669669e+005 3.405485669669e+005 3.405485669670e+005 3.405485669668e+005 3.383979730629e+005 3.383979730628e+005 3.383979730632e+005 3.383979730631e+005 3.383979730630e+005 3.383979730632e+005 3.383979730632e+005 3.383979730629e+005 3.383979730631e+005 3.362258672011e+005 3.362258672012e+005 3.362258672011e+005 3.362258672012e+005 3.362258672010e+005 3.362258672011e+005 3.362258672009e+005 3.362258672012e+005 3.362258672010e+005 3.340314566419e+005 3.340314566421e+005 3.340314566420e+005 3.340314566421e+005 3.340314566421e+005 3.340314566418e+005 3.340314566420e+005 3.340314566419e+005 3.340314566419e+005 3.318139113857e+005 3.318139113855e+005 3.318139113857e+005 3.318139113855e+005 3.318139113856e+005 3.318139113854e+005 3.318139113854e+005 3.318139113855e+005 3.318139113854e+005 3.295723618752e+005 3.295723618753e+005 3.295723618751e+005 3.295723618753e+005 3.295723618751e+005 3.295723618752e+005 3.295723618750e+005 3.295723618752e+005 3.295723618751e+005 3.273058965057e+005 3.273058965061e+005 3.273058965058e+005 3.273058965058e+005 3.273058965058e+005 3.273058965057e+005 3.273058965058e+005 3.273058965058e+005 3.273058965057e+005 3.250135589150e+005 3.250135589148e+005 3.250135589148e+005 3.250135589146e+005 3.250135589149e+005 3.250135589147e+005 3.250135589149e+005 3.250135589150e+005 3.250135589149e+005 3.226943450268e+005 3.226943450265e+005 3.226943450267e+005 3.226943450269e+005 3.226943450265e+005 3.226943450265e+005 3.226943450268e+005 3.226943450267e+005 3.226943450267e+005 3.203471998265e+005 3.203471998265e+005 3.203471998265e+005 3.203471998265e+005 3.203471998265e+005 3.203471998265e+005 3.203471998267e+005 3.203471998265e+005 3.203471998263e+005 3.179710138299e+005 3.179710138301e+005 3.179710138300e+005 3.179710138304e+005 3.179710138302e+005 3.179710138302e+005 3.179710138300e+005 3.179710138301e+005 3.179710138302e+005 3.155646192154e+005 3.155646192152e+005 3.155646192152e+005 3.155646192153e+005 3.155646192154e+005 3.155646192151e+005 3.155646192153e+005 3.155646192154e+005 3.155646192153e+005 3.131267855728e+005 3.131267855727e+005 3.131267855727e+005 3.131267855729e+005 3.131267855726e+005 3.131267855726e+005 3.131267855728e+005 3.131267855726e+005 3.131267855727e+005 3.106562152349e+005 3.106562152349e+005 3.106562152349e+005 3.106562152350e+005 3.106562152349e+005 3.106562152349e+005 3.106562152349e+005 3.106562152349e+005 3.106562152350e+005 3.081515381258e+005 3.081515381254e+005 3.081515381256e+005 3.081515381255e+005 3.081515381256e+005 3.081515381255e+005 3.081515381255e+005 3.081515381255e+005 3.081515381255e+005 3.056113060748e+005 3.056113060749e+005 3.056113060749e+005 3.056113060748e+005 3.056113060749e+005 3.056113060748e+005 3.056113060748e+005 3.056113060748e+005 3.056113060749e+005 3.030339865298e+005 3.030339865297e+005 3.030339865297e+005 3.030339865296e+005 3.030339865297e+005 3.030339865298e+005 3.030339865296e+005 3.030339865297e+005 3.030339865296e+005 3.004179555786e+005 3.004179555787e+005 3.004179555789e+005 3.004179555786e+005 3.004179555788e+005 3.004179555786e+005 3.004179555786e+005 3.004179555788e+005 3.004179555787e+005 2.977614902050e+005 2.977614902048e+005 2.977614902049e+005 2.977614902050e+005 2.977614902049e+005 2.977614902049e+005 2.977614902049e+005 2.977614902047e+005 2.977614902050e+005 2.950627596547e+005 2.950627596548e+005 2.950627596547e+005 2.950627596548e+005 2.950627596548e+005 2.950627596549e+005 2.950627596547e+005 2.950627596548e+005 2.950627596548e+005 2.923198158044e+005 2.923198158043e+005 2.923198158043e+005 2.923198158045e+005 2.923198158044e+005 2.923198158044e+005 2.923198158044e+005 2.923198158043e+005 2.923198158043e+005 2.895305823751e+005 2.895305823752e+005 2.895305823751e+005 2.895305823750e+005 2.895305823752e+005 2.895305823751e+005 2.895305823751e+005 2.895305823751e+005 2.895305823752e+005 2.866928428332e+005 2.866928428331e+005 2.866928428332e+005 2.866928428330e+005 2.866928428331e+005 2.866928428332e+005 2.866928428331e+005 2.866928428330e+005 2.866928428330e+005 2.838042267711e+005 2.838042267710e+005 2.838042267709e+005 2.838042267709e+005 2.838042267709e+005 2.838042267712e+005 2.838042267711e+005 2.838042267709e+005 2.838042267708e+005 2.808621945363e+005 2.808621945365e+005 2.808621945364e+005 2.808621945363e+005 2.808621945364e+005 2.808621945364e+005 2.808621945365e+005 2.808621945365e+005 2.808621945361e+005 2.778640198327e+005 2.778640198330e+005 2.778640198329e+005 2.778640198328e+005 2.778640198330e+005 2.778640198329e+005 2.778640198329e+005 2.778640198330e+005 2.778640198329e+005 2.748067699544e+005 2.748067699545e+005 2.748067699543e+005 2.748067699545e+005 2.748067699545e+005 2.748067699545e+005 2.748067699544e+005 2.748067699546e+005 2.748067699545e+005 2.716872832636e+005 2.716872832633e+005 2.716872832634e+005 2.716872832635e+005 2.716872832635e+005 2.716872832635e+005 2.716872832636e+005 2.716872832635e+005 2.716872832635e+005 2.685021434263e+005 2.685021434262e+005 2.685021434264e+005 2.685021434262e+005 2.685021434262e+005 2.685021434262e+005 2.685021434263e+005 2.685021434262e+005 2.685021434262e+005 2.652476498321e+005 2.652476498321e+005 2.652476498320e+005 2.652476498319e+005 2.652476498319e+005 2.652476498320e+005 2.652476498319e+005 2.652476498320e+005 2.652476498318e+005 2.619197834817e+005 2.619197834817e+005 2.619197834817e+005 2.619197834818e+005 2.619197834817e+005 2.619197834816e+005 2.619197834817e+005 2.619197834818e+005 2.619197834817e+005 2.585141674825e+005 2.585141674824e+005 2.585141674824e+005 2.585141674825e+005 2.585141674825e+005 2.585141674822e+005 2.585141674824e+005 2.585141674824e+005 2.585141674826e+005 2.550260210650e+005 2.550260210652e+005 2.550260210652e+005 2.550260210652e+005 2.550260210653e+005 2.550260210651e+005 2.550260210651e+005 2.550260210651e+005 2.550260210652e+005 2.514501057898e+005 2.514501057899e+005 2.514501057898e+005 2.514501057900e+005 2.514501057899e+005 2.514501057899e+005 2.514501057897e+005 2.514501057899e+005 2.514501057898e+005 2.477806622519e+005 2.477806622519e+005 2.477806622518e+005 2.477806622519e+005 2.477806622519e+005 2.477806622520e+005 2.477806622518e+005 2.477806622520e+005 2.477806622518e+005 2.440113351693e+005 2.440113351695e+005 2.440113351693e+005 2.440113351694e+005 2.440113351694e+005 2.440113351694e+005 2.440113351694e+005 2.440113351695e+005 2.440113351696e+005 2.401350841514e+005 2.401350841515e+005 2.401350841514e+005 2.401350841514e+005 2.401350841515e+005 2.401350841514e+005 2.401350841516e+005 2.401350841517e+005 2.401350841515e+005 2.361440766997e+005 2.361440766997e+005 2.361440766997e+005 2.361440766997e+005 2.361440766996e+005 2.361440766997e+005 2.361440766997e+005 2.361440766998e+005 2.361440766996e+005 2.320295589896e+005 2.320295589893e+005 2.320295589893e+005 2.320295589892e+005 2.320295589892e+005 2.320295589891e+005 2.320295589894e+005 2.320295589893e+005 2.320295589893e+005 2.277816986314e+005 2.277816986313e+005 2.277816986311e+005 2.277816986312e+005 2.277816986311e+005 2.277816986312e+005 2.277816986312e+005 2.277816986312e+005 2.277816986314e+005 2.233893917569e+005 2.233893917568e+005 2.233893917568e+005 2.233893917568e+005 2.233893917567e+005 2.233893917568e+005 2.233893917567e+005 2.233893917568e+005 2.233893917566e+005 2.188400241509e+005 2.188400241509e+005 2.188400241509e+005 2.188400241509e+005 2.188400241509e+005 2.188400241508e+005 2.188400241508e+005 2.188400241507e+005 2.188400241507e+005 2.141191724066e+005 2.141191724066e+005 2.141191724067e+005 2.141191724066e+005 2.141191724066e+005 2.141191724066e+005 2.141191724066e+005 2.141191724066e+005 2.141191724063e+005 2.092102256110e+005 2.092102256108e+005 2.092102256107e+005 2.092102256108e+005 2.092102256108e+005 2.092102256108e+005 2.092102256109e+005 2.092102256108e+005 2.092102256109e+005 2.040939000625e+005 2.040939000625e+005 2.040939000624e+005 2.040939000626e+005 2.040939000626e+005 2.040939000627e+005 2.040939000625e+005 2.040939000626e+005 2.040939000625e+005 1.987476078337e+005 1.987476078335e+005 1.987476078336e+005 1.987476078336e+005 1.987476078339e+005 1.987476078336e+005 1.987476078337e+005 1.987476078336e+005 1.987476078335e+005 1.931446228401e+005 1.931446228401e+005 1.931446228402e+005 1.931446228401e+005 1.931446228402e+005 1.931446228401e+005 1.931446228402e+005 1.931446228400e+005 1.931446228403e+005 1.872529625850e+005 1.872529625852e+005 1.872529625850e+005 1.872529625853e+005 1.872529625852e+005 1.872529625852e+005 1.872529625851e+005 1.872529625850e+005 1.872529625852e+005 1.810338644170e+005 1.810338644170e+005 1.810338644171e+005 1.810338644170e+005 1.810338644170e+005 1.810338644170e+005 1.810338644168e+005 1.810338644169e+005 1.810338644170e+005 1.744396723708e+005 1.744396723706e+005 1.744396723708e+005 1.744396723709e+005 1.744396723710e+005 1.744396723709e+005 1.744396723707e+005 1.744396723707e+005 1.744396723706e+005 1.674108445363e+005 1.674108445364e+005 1.674108445366e+005 1.674108445367e+005 1.674108445365e+005 1.674108445365e+005 1.674108445365e+005 1.674108445364e+005 1.674108445364e+005 1.598715923789e+005 1.598715923788e+005 1.598715923789e+005 1.598715923789e+005 1.598715923787e+005 1.598715923789e+005 1.598715923788e+005 1.598715923787e+005 1.598715923785e+005 1.517232226005e+005 1.517232226004e+005 1.517232226005e+005 1.517232226003e+005 1.517232226004e+005 1.517232226002e+005 1.517232226006e+005 1.517232226003e+005 1.517232226000e+005 1.428332811497e+005 1.428332811497e+005 1.428332811497e+005 1.428332811496e+005 1.428332811497e+005 1.428332811495e+005 1.428332811497e+005 1.428332811494e+005 1.428332811494e+005 1.330168729957e+005 1.330168729955e+005 1.330168729957e+005 1.330168729958e+005 1.330168729955e+005 1.330168729954e+005 1.330168729956e+005 1.330168729953e+005 1.330168729955e+005 1.220016738163e+005 1.220016738169e+005 1.220016738163e+005 1.220016738161e+005 1.220016738162e+005 1.220016738159e+005 1.220016738157e+005 1.220016738158e+005 1.220016738158e+005 1.093631116205e+005 1.093631116206e+005 1.093631116197e+005 1.093631116195e+005 1.093631116185e+005 1.093631116185e+005 1.093631116176e+005 1.093631116172e+005 1.093631116169e+005 9.440563497601e+004 9.440563497627e+004 9.440563497667e+004 9.440563497365e+004 9.440563497502e+004 9.440563497428e+004 9.440563497560e+004 9.440563497474e+004 9.440563497530e+004 7.591206220007e+004 7.591206219822e+004 7.591206219567e+004 7.591206220209e+004 7.591206219752e+004 7.591206220638e+004 7.591206220777e+004 7.591206221152e+004 7.591206220864e+004 5.079248613700e+004 5.079248614947e+004 5.079248616647e+004 5.079248614748e+004 5.079248615617e+004 5.079248612946e+004 5.079248613174e+004 5.079248612882e+004 5.079248614817e+004 1.263575375759e+004 1.263575367394e+004 1.263575360258e+004 1.263575366933e+004 1.263575367522e+004 1.263575372917e+004 1.263575374125e+004 1.263575374309e+004 1.263575366952e+004 -3.815796050959e+004 -3.815795780106e+004 -3.815795654729e+004 -3.815795796815e+004 -3.815795826510e+004 -3.815795875609e+004 -3.815795884653e+004 -3.815795915469e+004 -3.815795689418e+004 -8.891292021329e+004 -8.891291923334e+004 -8.891291804899e+004 -8.891291902188e+004 -8.891291971095e+004 -8.891291967373e+004 -8.891291992859e+004 -8.891291867323e+004 -8.891291862906e+004 -1.396390682645e+005 -1.396390663705e+005 -1.396390652602e+005 -1.396390656929e+005 -1.396390653060e+005 -1.396390639079e+005 -1.396390657269e+005 -1.396390651772e+005 -1.396390646508e+005 -1.903516961659e+005 -1.903516933221e+005 -1.903516926821e+005 -1.903516909042e+005 -1.903516910646e+005 -1.903516908554e+005 -1.903516911624e+005 -1.903516898592e+005 -1.903516891428e+005 -2.410507877714e+005 -2.410507868501e+005 -2.410507858477e+005 -2.410507845256e+005 -2.410507839697e+005 -2.410507831267e+005 -2.410507832668e+005 -2.410507818910e+005 -2.410507824201e+005 -2.917346256615e+005 -2.917346255186e+005 -2.917346233716e+005 -2.917346246973e+005 -2.917346224297e+005 -2.917346220270e+005 -2.917346217712e+005 -2.917346206443e+005 -2.917346195563e+005 -3.424037923329e+005 -3.424037913469e+005 -3.424037922974e+005 -3.424037900418e+005 -3.424037897405e+005 -3.424037886100e+005 -3.424037883999e+005 -3.424037882178e+005 -3.424037871481e+005 -3.930589609273e+005 -3.930589625099e+005 -3.930589618825e+005 -3.930589617176e+005 -3.930589603024e+005 -3.930589598881e+005 -3.930589590459e+005 -3.930589576609e+005 -3.930589569892e+005 -4.437009107165e+005 -4.437009125975e+005 -4.437009133350e+005 -4.437009118814e+005 -4.437009102813e+005 -4.437009103957e+005 -4.437009088340e+005 -4.437009074921e+005 -4.437009073377e+005 -4.943302255573e+005 -4.943302278947e+005 -4.943302277532e+005 -4.943302277255e+005 -4.943302267625e+005 -4.943302249956e+005 -4.943302238141e+005 -4.943302235237e+005 -4.943302228497e+005 -5.449473269071e+005 -5.449473249656e+005 -5.449473258317e+005 -5.449473257706e+005 -5.449473254618e+005 -5.449473229072e+005 -5.449473218900e+005 -5.449473226924e+005 -5.449473223638e+005 -5.955525474875e+005 -5.955525469220e+005 -5.955525466869e+005 -5.955525465938e+005 -5.955525456289e+005 -5.955525433967e+005 -5.955525440464e+005 -5.955525434174e+005 -5.955525437495e+005 -6.461461950322e+005 -6.461461942545e+005 -6.461461942081e+005 -6.461461927814e+005 -6.461461926316e+005 -6.461461915914e+005 -6.461461913154e+005 -6.461461907277e+005 -6.461461914369e+005 -6.967285526519e+005 -6.967285517516e+005 -6.967285521220e+005 -6.967285517567e+005 -6.967285506244e+005 -6.967285505078e+005 -6.967285498891e+005 -6.967285498209e+005 -6.967285486277e+005 -7.472998904548e+005 -7.472998911257e+005 -7.472998919012e+005 -7.472998914418e+005 -7.472998907074e+005 -7.472998910102e+005 -7.472998903621e+005 -7.472998903969e+005 -7.472998901244e+005 -7.978604698463e+005 -7.978604706174e+005 -7.978604711608e+005 -7.978604705774e+005 -7.978604705335e+005 -7.978604707570e+005 -7.978604699426e+005 -7.978604704745e+005 -7.978604705447e+005 -8.484105369116e+005 -8.484105370255e+005 -8.484105373688e+005 -8.484105374955e+005 -8.484105363540e+005 -8.484105361943e+005 -8.484105364995e+005 -8.484105367650e+005 -8.484105366083e+005 -8.989503267033e+005 -8.989503275254e+005 -8.989503281573e+005 -8.989503280852e+005 -8.989503277818e+005 -8.989503271039e+005 -8.989503271041e+005 -8.989503272747e+005 -8.989503273870e+005 -9.494800733479e+005 -9.494800737800e+005 -9.494800740317e+005 -9.494800738816e+005 -9.494800739752e+005 -9.494800735167e+005 -9.494800735165e+005 -9.494800736804e+005 -9.494800735227e+005 -1.000000000000e+006 -1.000000000000e+006 -1.000000000000e+006 -1.000000000000e+006 -1.000000000000e+006 -1.000000000000e+006 -1.000000000000e+006 -1.000000000000e+006 -1.000000000000e+006 
        </DataArray>
        <DataArray type="Float64" Name="NONWET_PRESSURE" format="ascii">