<?xml version="1.0"?>
<VTKFile type="UnstructuredGrid" version="0.1" byte_order="LittleEndian">
  <UnstructuredGrid>
    <Piece NumberOfPoints="909" NumberOfCells="800">
      <Points>
        <DataArray type="Float64" NumberOfComponents="3" format="ascii">
          0.000000000000e+000 0.000000000000e+000 0.000000000000e+000
          2.000000000000e+000 0.000000000000e+000 0.000000000000e+000
          2.000000000000e+000 2.500000000000e+000 0.000000000000e+000
          0.000000000000e+000 2.500000000000e+000 0.000000000000e+000
          2.000000000000e+000 5.000000000000e+000 0.000000000000e+000
          0.000000000000e+000 5.000000000000e+000 0.000000000000e+000
          2.000000000000e+000 7.500000000000e+000 0.000000000000e+000
          0.000000000000e+000 7.500000000000e+000 0.000000000000e+000
          2.000000000000e+000 1.000000000000e+001 0.000000000000e+000
          0.000000000000e+000 1.000000000000e+001 0.000000000000e+000
          2.000000000000e+000 1.250000000000e+001 0.000000000000e+000
          0.000000000000e+000 1.250000000000e+001 0.000000000000e+000
          2.000000000000e+000 1.500000000000e+001 0.000000000000e+000
          0.000000000000e+000 1.500000000000e+001 0.000000000000e+000
          2.000000000000e+000 1.750000000000e+001 0.000000000000e+000
          0.000000000000e+000 1.750000000000e+001 0.000000000000e+000
          2.000000000000e+000 2.000000000000e+001 0.000000000000e+000
          0.000000000000e+000 2.000000000000e+001 0.000000000000e+000
          4.000000000000e+000 0.000000000000e+000 0.000000000000e+000
          4.000000000000e+000 2.500000000000e+000 0.000000000000e+000
          4.000000000000e+000 5.000000000000e+000 0.000000000000e+000
          4.000000000000e+000 7.500000000000e+000 0.000000000000e+000
          4.000000000000e+000 1.000000000000e+001 0.000000000000e+000
          4.000000000000e+000 1.250000000000e+001 0.000000000000e+000
          4.000000000000e+000 1.500000000000e+001 0.000000000000e+000
          4.000000000000e+000 1.750000000000e+001 0.000000000000e+000
          4.000000000000e+000 2.000000000000e+001 0.000000000000e+000
          6.000000000000e+000 0.000000000000e+000 0.000000000000e+000
          6.000000000000e+000 2.500000000000e+000 0.000000000000e+000
          6.000000000000e+000 5.000000000000e+000 0.000000000000e+000
          6.000000000000e+000 7.500000000000e+000 0.000000000000e+000
          6.000000000000e+000 1.000000000000e+001 0.000000000000e+000
          6.000000000000e+000 1.250000000000e+001 0.000000000000e+000
          6.000000000000e+000 1.500000000000e+001 0.000000000000e+000
          6.000000000000e+000 1.750000000000e+001 0.000000000000e+000
          6.000000000000e+000 2.000000000000e+001 0.000000000000e+000
          8.000000000000e+000 0.000000000000e+000 0.000000000000e+000
          8.000000000000e+000 2.500000000000e+000 0.000000000000e+000
          8.000000000000e+000 5.000000000000e+000 0.000000000000e+000
          8.000000000000e+000 7.500000000000e+000 0.000000000000e+000
          8.000000000000e+000 1.000000000000e+001 0.000000000000e+000
          8.000000000000e+000 1.250000000000e+001 0.000000000000e+000
          8.000000000000e+000 1.500000000000e+001 0.000000000000e+000
          8.000000000000e+000 1.750000000000e+001 0.000000000000e+000
          8.000000000000e+000 2.000000000000e+001 0.000000000000e+000
          1.000000000000e+001 0.000000000000e+000 0.000000000000e+000
          1.000000000000e+001 2.500000000000e+000 0.000000000000e+000
          1.000000000000e+001 5.000000000000e+000 0.000000000000e+000
          1.000000000000e+001 7.500000000000e+000 0.000000000000e+000
          1.000000000000e+001 1.000000000000e+001 0.000000000000e+000
          1.000000000000e+001 1.250000000000e+001 0.000000000000e+000
          1.000000000000e+001 1.500000000000e+001 0.000000000000e+000
          1.000000000000e+001 1.750000000000e+001 0.000000000000e+000
          1.000000000000e+001 2.000000000000e+001 0.000000000000e+000
          1.200000000000e+001 0.000000000000e+000 0.000000000000e+000
          1.200000000000e+001 2.500000000000e+000 0.000000000000e+000
          1.200000000000e+001 5.000000000000e+000 0.000000000000e+000
          1.200000000000e+001 7.500000000000e+000 0.000000000000e+000
          1.200000000000e+001 1.000000000000e+001 0.000000000000e+000
          1.200000000000e+001 1.250000000000e+001 0.000000000000e+000
          1.200000000000e+001 1.500000000000e+001 0.000000000000e+000
          1.200000000000e+001 1.750000000000e+001 0.000000000000e+000
          1.200000000000e+001 2.000000000000e+001 0.000000000000e+000
          1.400000000000e+001 0.000000000000e+000 0.000000000000e+000
          1.400000000000e+001 2.500000000000e+000 0.000000000000e+000
          1.400000000000e+001 5.000000000000e+000 0.000000000000e+000
          1.400000000000e+001 7.500000000000e+000 0.000000000000e+000
          1.400000000000e+001 1.000000000000e+001 0.000000000000e+000
          1.400000000000e+001 1.250000000000e+001 0.000000000000e+000
          1.400000000000e+001 1.500000000000e+001 0.000000000000e+000
          1.400000000000e+001 1.750000000000e+001 0.000000000000e+000
          1.400000000000e+001 2.000000000000e+001 0.000000000000e+000
          1.600000000000e+001 0.000000000000e+000 0.000000000000e+000
          1.600000000000e+001 2.500000000000e+000 0.000000000000e+000
          1.600000000000e+001 5.000000000000e+000 0.000000000000e+000
          1.600000000000e+001 7.500000000000e+000 0.000000000000e+000
          1.600000000000e+001 1.000000000000e+001 0.000000000000e+000
          1.600000000000e+001 1.250000000000e+001 0.000000000000e+000
          1.600000000000e+001 1.500000000000e+001 0.000000000000e+000
          1.600000000000e+001 1.750000000000e+001 0.000000000000e+000
          1.600000000000e+001 2.000000000000e+001 0.000000000000e+000
          1.800000000000e+001 0.000000000000e+000 0.000000000000e+000
          1.800000000000e+001 2.500000000000e+000 0.000000000000e+000
          1.800000000000e+001 5.000000000000e+000 0.000000000000e+000
          1.800000000000e+001 7.500000000000e+000 0.000000000000e+000
          1.800000000000e+001 1.000000000000e+001 0.000000000000e+000
          1.800000000000e+001 1.250000000000e+001 0.000000000000e+000
          1.800000000000e+001 1.500000000000e+001 0.000000000000e+000
          1.800000000000e+001 1.750000000000e+001 0.000000000000e+000
          1.800000000000e+001 2.000000000000e+001 0.000000000000e+000
          2.000000000000e+001 0.000000000000e+000 0.000000000000e+000
          2.000000000000e+001 2.500000000000e+000 0.000000000000e+000
          2.000000000000e+001 5.000000000000e+000 0.000000000000e+000
          2.000000000000e+001 7.500000000000e+000 0.000000000000e+000
          2.000000000000e+001 1.000000000000e+001 0.000000000000e+000
          2.000000000000e+001 1.250000000000e+001 0.000000000000e+000
          2.000000000000e+001 1.500000000000e+001 0.000000000000e+000
          2.000000000000e+001 1.750000000000e+001 0.000000000000e+000
          2.000000000000e+001 2.000000000000e+001 0.000000000000e+000
          2.200000000000e+001 0.000000000000e+000 0.000000000000e+000
          2.200000000000e+001 2.500000000000e+000 0.000000000000e+000
          2.200000000000e+001 5.000000000000e+000 0.000000000000e+000
          2.200000000000e+001 7.500000000000e+000 0.000000000000e+000
          2.200000000000e+001 1.000000000000e+001 0.000000000000e+000
          2.200000000000e+001 1.250000000000e+001 0.000000000000e+000
          2.200000000000e+001 1.500000000000e+001 0.000000000000e+000
          2.200000000000e+001 1.750000000000e+001 0.000000000000e+000
          2.200000000000e+001 2.000000000000e+001 0.000000000000e+000
          2.400000000000e+001 0.000000000000e+000 0.000000000000e+000
          2.400000000000e+001 2.500000000000e+000 0.000000000000e+000
          2.400000000000e+001 5.000000000000e+000 0.000000000000e+000
          2.400000000000e+001 7.500000000000e+000 0.000000000000e+000
          2.400000000000e+001 1.000000000000e+001 0.000000000000e+000
          2.400000000000e+001 1.250000000000e+001 0.000000000000e+000
          2.400000000000e+001 1.500000000000e+001 0.000000000000e+000
          2.400000000000e+001 1.750000000000e+001 0.000000000000e+000
          2.400000000000e+001 2.000000000000e+001 0.000000000000e+000
          2.600000000000e+001 0.000000000000e+000 0.000000000000e+000
          2.600000000000e+001 2.500000000000e+000 0.000000000000e+000
          2.600000000000e+001 5.000000000000e+000 0.000000000000e+000
          2.600000000000e+001 7.500000000000e+000 0.000000000000e+000
          2.600000000000e+001 1.000000000000e+001 0.000000000000e+000
          2.600000000000e+001 1.250000000000e+001 0.000000000000e+000
          2.600000000000e+001 1.500000000000e+001 0.000000000000e+000
          2.600000000000e+001 1.750000000000e+001 0.000000000000e+000
          2.600000000000e+001 2.000000000000e+001 0.000000000000e+000
          2.800000000000e+001 0.000000000000e+000 0.000000000000e+000
          2.800000000000e+001 2.500000000000e+000 0.000000000000e+000
          2.800000000000e+001 5.000000000000e+000 0.000000000000e+000
          2.800000000000e+001 7.500000000000e+000 0.000000000000e+000
          2.800000000000e+001 1.000000000000e+001 0.000000000000e+000
          2.800000000000e+001 1.250000000000e+001 0.000000000000e+000
          2.800000000000e+001 1.500000000000e+001 0.000000000000e+000
          2.800000000000e+001 1.750000000000e+001 0.000000000000e+000
          2.800000000000e+001 2.000000000000e+001 0.000000000000e+000
          3.000000000000e+001 0.000000000000e+000 0.000000000000e+000
          3.000000000000e+001 2.500000000000e+000 0.000000000000e+000
          3.000000000000e+001 5.000000000000e+000 0.000000000000e+000
          3.000000000000e+001 7.500000000000e+000 0.000000000000e+000
[...]
      <PointData Scalars="CAPILLARY_PRESSURE">
        <DataArray type="Float64" Name="CAPILLARY_PRESSURE" format="ascii">
          3.608457030896e+005 3.588718473829e+005 3.588718473829e+005 3.608457030896e+005 3.588718473829e+005 3.608457030896e+005 3.588718473829e+005 3.608457030896e+005 3.588718473829e+005 3.608457030896e+005 3.588718473829e+005 3.608457030896e+005 3.588718473829e+005 3.608457030896e+005 3.588718473829e+005 3.608457030896e+005 3.588718473829e+005 3.608457030896e+005 3.568963347259e+005 3.568963347259e+005 3.568963347259e+005 3.568963347259e+005 3.568963347259e+005 3.568963347259e+005 3.568963347259e+005 3.568963347259e+005 3.568963347258e+005 3.549188363671e+005 3.549188363671e+005 3.549188363671e+005 3.549188363671e+005 3.549188363671e+005 3.549188363671e+005 3.549188363671e+005 3.549188363671e+005 3.549188363671e+005 3.529389959619e+005 3.529389959619e+005 3.529389959619e+005 3.529389959619e+005 3.529389959619e+005 3.529389959619e+005 3.529389959619e+005 3.529389959619e+005 3.529389959619e+005 3.509564403125e+005 3.509564403125e+005 3.509564403125e+005 3.509564403125e+005 3.509564403125e+005 3.509564403125e+005 3.509564403125e+005 3.509564403125e+005 3.509564403125e+005 3.489707682022e+005 3.489707682022e+005 3.489707682022e+005 3.489707682022e+005 3.489707682022e+005 3.489707682022e+005 3.489707682022e+005 3.489707682022e+005 3.489707682022e+005 3.469815534157e+005 3.469815534157e+005 3.469815534157e+005 3.469815534157e+005 3.469815534157e+005 3.469815534157e+005 3.469815534157e+005 3.469815534157e+005 3.469815534157e+005 3.449883456565e+005 3.449883456565e+005 3.449883456565e+005 3.449883456565e+005 3.449883456565e+005 3.449883456565e+005 3.449883456565e+005 3.449883456565e+005 3.449883456565e+005 3.429906710592e+005 3.429906710592e+005 3.429906710592e+005 3.429906710592e+005 3.429906710592e+005 3.429906710592e+005 3.429906710592e+005 3.429906710592e+005 3.429906710592e+005 3.409880319889e+005 3.409880319889e+005 3.409880319889e+005 3.409880319889e+005 3.409880319889e+005 3.409880319889e+005 3.409880319889e+005 3.409880319889e+005 3.409880319889e+005 3.389799065549e+005 3.389799065549e+005 3.389799065549e+005 3.389799065549e+005 3.389799065549e+005 3.389799065549e+005 3.389799065549e+005 3.389799065549e+005 3.389799065549e+005 3.369657481583e+005 3.369657481583e+005 3.369657481583e+005 3.369657481583e+005 3.369657481583e+005 3.369657481583e+005 3.369657481583e+005 3.369657481583e+005 3.369657481583e+005 3.349449847858e+005 3.349449847858e+005 3.349449847858e+005 3.349449847858e+005 3.349449847858e+005 3.349449847858e+005 3.349449847858e+005 3.349449847858e+005 3.349449847858e+005 3.329170180091e+005 3.329170180091e+005 3.329170180091e+005 3.329170180091e+005 3.329170180091e+005 3.329170180091e+005 3.329170180091e+005 3.329170180091e+005 3.329170180091e+005 3.308812217993e+005 3.308812217994e+005 3.308812217994e+005 3.308812217993e+005 3.308812217994e+005 3.308812217993e+005 3.308812217994e+005 3.308812217993e+005 3.308812217994e+005 3.288369412365e+005 3.288369412365e+005 3.288369412365e+005 3.288369412365e+005 3.288369412365e+005 3.288369412365e+005 3.288369412365e+005 3.288369412365e+005 3.288369412365e+005 3.267834911438e+005 3.267834911438e+005 3.267834911438e+005 3.267834911438e+005 3.267834911438e+005 3.267834911438e+005 3.267834911438e+005 3.267834911438e+005 3.267834911438e+005 3.247201546471e+005 3.247201546471e+005 3.247201546471e+005 3.247201546471e+005 3.247201546471e+005 3.247201546471e+005 3.247201546471e+005 3.247201546471e+005 3.247201546471e+005 3.226461816437e+005 3.226461816437e+005 3.226461816437e+005 3.226461816437e+005 3.226461816437e+005 3.226461816437e+005 3.226461816437e+005 3.226461816437e+005 3.226461816437e+005 3.205607871593e+005 3.205607871593e+005 3.205607871593e+005 3.205607871593e+005 3.205607871593e+005 3.205607871593e+005 3.205607871593e+005 3.205607871593e+005 3.205607871593e+005 3.184631495772e+005 3.184631495772e+005 3.184631495772e+005 3.184631495772e+005 3.184631495772e+005 3.184631495772e+005 3.184631495772e+005 3.184631495772e+005 3.184631495772e+005 3.163524087197e+005 3.163524087197e+005 3.163524087197e+005 3.163524087197e+005 3.163524087197e+005 3.163524087197e+005 3.163524087197e+005 3.163524087197e+005 3.163524087197e+005 3.142276637661e+005 3.142276637661e+005 3.142276637661e+005 3.142276637661e+005 3.142276637661e+005 3.142276637661e+005 3.142276637661e+005 3.142276637661e+005 3.142276637661e+005 3.120879709902e+005 3.120879709902e+005 3.120879709902e+005 3.120879709902e+005 3.120879709902e+005 3.120879709902e+005 3.120879709902e+005 3.120879709902e+005 3.120879709902e+005 3.099323412967e+005 3.099323412968e+005 3.099323412968e+005 3.099323412968e+005 3.099323412968e+005 3.099323412968e+005 3.099323412968e+005 3.099323412967e+005 3.099323412968e+005 3.077597375392e+005 3.077597375392e+005 3.077597375392e+005 3.077597375392e+005 3.077597375392e+005 3.077597375392e+005 3.077597375392e+005 3.077597375392e+005 3.077597375392e+005 3.055690715922e+005 3.055690715922e+005 3.055690715922e+005 3.055690715922e+005 3.055690715922e+005 3.055690715922e+005 3.055690715922e+005 3.055690715922e+005 3.055690715922e+005 3.033592011548e+005 3.033592011548e+005 3.033592011548e+005 3.033592011548e+005 3.033592011548e+005 3.033592011548e+005 3.033592011548e+005 3.033592011548e+005 3.033592011548e+005 3.011289262524e+005 3.011289262524e+005 3.011289262524e+005 3.011289262524e+005 3.011289262524e+005 3.011289262524e+005 3.011289262524e+005 3.011289262524e+005 3.011289262524e+005 2.988769854042e+005 2.988769854042e+005 2.988769854042e+005 2.988769854042e+005 2.988769854042e+005 2.988769854042e+005 2.988769854042e+005 2.988769854042e+005 2.988769854042e+005 2.966020514165e+005 2.966020514165e+005 2.966020514165e+005 2.966020514165e+005 2.966020514164e+005 2.966020514165e+005 2.966020514165e+005 2.966020514165e+005 2.966020514164e+005 2.943027267564e+005 2.943027267564e+005 2.943027267564e+005 2.943027267564e+005 2.943027267564e+005 2.943027267564e+005 2.943027267564e+005 2.943027267564e+005 2.943027267564e+005 2.919775384567e+005 2.919775384567e+005 2.919775384567e+005 2.919775384567e+005 2.919775384567e+005 2.919775384567e+005 2.919775384567e+005 2.919775384567e+005 2.919775384567e+005 2.896249324910e+005 2.896249324910e+005 2.896249324910e+005 2.896249324910e+005 2.896249324910e+005 2.896249324910e+005 2.896249324910e+005 2.896249324910e+005 2.896249324910e+005 2.872432675537e+005 2.872432675537e+005 2.872432675537e+005 2.872432675537e+005 2.872432675537e+005 2.872432675537e+005 2.872432675537e+005 2.872432675537e+005 2.872432675537e+005 2.848308081658e+005 2.848308081658e+005 2.848308081658e+005 2.848308081658e+005 2.848308081658e+005 2.848308081658e+005 2.848308081658e+005 2.848308081658e+005 2.848308081658e+005 2.823857170180e+005 2.823857170180e+005 2.823857170180e+005 2.823857170180e+005 2.823857170180e+005 2.823857170180e+005 2.823857170180e+005 2.823857170180e+005 2.823857170180e+005 2.799060464458e+005 2.799060464458e+005 2.799060464458e+005 2.799060464458e+005 2.799060464458e+005 2.799060464458e+005 2.799060464458e+005 2.799060464458e+005 2.799060464459e+005 2.773897289166e+005 2.773897289166e+005 2.773897289166e+005 2.773897289166e+005 2.773897289166e+005 2.773897289166e+005 2.773897289166e+005 2.773897289166e+005 2.773897289166e+005 2.748345663858e+005 2.748345663858e+005 2.748345663858e+005 2.748345663858e+005 2.748345663858e+005 2.748345663858e+005 2.748345663858e+005 2.748345663858e+005 2.748345663858e+005 2.722382183570e+005 2.722382183570e+005 2.722382183570e+005 2.722382183570e+005 2.722382183570e+005 2.722382183570e+005 2.722382183570e+005 2.722382183570e+005 2.722382183570e+005 2.695981884510e+005 2.695981884510e+005 2.695981884510e+005 2.695981884510e+005 2.695981884510e+005 2.695981884510e+005 2.695981884510e+005 2.695981884510e+005 2.695981884510e+005 2.669118092517e+005 2.669118092517e+005 2.669118092517e+005 2.669118092517e+005 2.669118092517e+005 2.669118092517e+005 2.669118092517e+005 2.669118092517e+005 2.669118092517e+005 2.641762251556e+005 2.641762251556e+005 2.641762251556e+005 2.641762251556e+005 2.641762251556e+005 2.641762251556e+005 2.641762251556e+005 2.641762251556e+005 2.641762251556e+005 2.613883728992e+005 2.613883728992e+005 2.613883728992e+005 2.613883728992e+005 2.613883728992e+005 2.613883728992e+005 2.613883728992e+005 2.613883728992e+005 2.613883728992e+005 2.585449593710e+005 2.585449593710e+005 2.585449593710e+005 2.585449593710e+005 2.585449593710e+005 2.585449593710e+005 2.585449593710e+005 2.585449593710e+005 2.585449593710e+005 2.556424362389e+005 2.556424362389e+005 2.556424362389e+005 2.556424362389e+005 2.556424362389e+005 2.556424362389e+005 2.556424362389e+005 2.556424362389e+005 2.556424362389e+005 2.526769708207e+005 2.526769708207e+005 2.526769708207e+005 2.526769708207e+005 2.526769708207e+005 2.526769708207e+005 2.526769708207e+005 2.526769708207e+005 2.526769708207e+005 2.496444125029e+005 2.496444125029e+005 2.496444125029e+005 2.496444125029e+005 2.496444125029e+005 2.496444125029e+005 2.496444125029e+005 2.496444125029e+005 2.496444125029e+005 2.465402538557e+005 2.465402538557e+005 2.465402538557e+005 2.465402538557e+005 2.465402538557e+005 2.465402538557e+005 2.465402538557e+005 2.465402538557e+005 2.465402538557e+005 2.433595853921e+005 2.433595853921e+005 2.433595853921e+005 2.433595853921e+005 2.433595853921e+005 2.433595853921e+005 2.433595853921e+005 2.433595853921e+005 2.433595853921e+005 2.400970426664e+005 2.400970426664e+005 2.400970426664e+005 2.400970426664e+005 2.400970426664e+005 2.400970426664e+005 2.400970426664e+005 2.400970426664e+005 2.400970426664e+005 2.367467440790e+005 2.367467440790e+005 2.367467440790e+005 2.367467440790e+005 2.367467440790e+005 2.367467440790e+005 2.367467440790e+005 2.367467440790e+005 2.367467440790e+005 2.333022173353e+005 2.333022173353e+005 2.333022173353e+005 2.333022173353e+005 2.333022173353e+005 2.333022173353e+005 2.333022173353e+005 2.333022173353e+005 2.333022173353e+005 2.297563119477e+005 2.297563119477e+005 2.297563119477e+005 2.297563119477e+005 2.297563119477e+005 2.297563119477e+005 2.297563119477e+005 2.297563119477e+005 2.297563119477e+005 2.261010944487e+005 2.261010944487e+005 2.261010944487e+005 2.261010944487e+005 2.261010944487e+005 2.261010944487e+005 2.261010944487e+005 2.261010944487e+005 2.261010944487e+005 2.223277220022e+005 2.223277220022e+005 2.223277220022e+005 2.223277220022e+005 2.223277220022e+005 2.223277220022e+005 2.223277220022e+005 2.223277220022e+005 2.223277220022e+005 2.184262887938e+005 2.184262887938e+005 2.184262887938e+005 2.184262887938e+005 2.184262887938e+005 2.184262887938e+005 2.184262887938e+005 2.184262887938e+005 2.184262887938e+005 2.143856377785e+005 2.143856377785e+005 2.143856377785e+005 2.143856377785e+005 2.143856377785e+005 2.143856377785e+005 2.143856377785e+005 2.143856377785e+005 2.143856377785e+005 2.101931278718e+005 2.101931278718e+005 2.101931278718e+005 2.101931278718e+005 2.101931278718e+005 2.101931278718e+005 2.101931278718e+005 2.101931278718e+005 2.101931278718e+005 2.058343431519e+005 2.058343431519e+005 2.058343431519e+005 2.058343431519e+005 2.058343431519e+005 2.058343431519e+005 2.058343431519e+005 2.058343431519e+005 2.058343431519e+005 2.012927255883e+005 2.012927255883e+005 2.012927255883e+005 2.012927255883e+005 2.012927255883e+005 2.012927255883e+005 2.012927255883e+005 2.012927255883e+005 2.012927255883e+005 1.965491054481e+005 1.965491054481e+005 1.965491054481e+005 1.965491054481e+005 1.965491054481e+005 1.965491054481e+005 1.965491054481e+005 1.965491054481e+005 1.965491054481e+005 1.915810925655e+005 1.915810925655e+005 1.915810925655e+005 1.915810925655e+005 1.915810925655e+005 1.915810925655e+005 1.915810925655e+005 1.915810925655e+005 1.915810925655e+005 1.863622750564e+005 1.863622750564e+005 1.863622750564e+005 1.863622750564e+005 1.863622750564e+005 1.863622750564e+005 1.863622750564e+005 1.863622750564e+005 1.863622750564e+005 1.808611463674e+005 1.808611463674e+005 1.808611463674e+005 1.808611463674e+005 1.808611463674e+005 1.808611463674e+005 1.808611463674e+005 1.808611463674e+005 1.808611463674e+005 1.750396408794e+005 1.750396408794e+005 1.750396408794e+005 1.750396408794e+005 1.750396408794e+005 1.750396408794e+005 1.750396408794e+005 1.750396408794e+005 1.750396408794e+005 1.688510920675e+005 1.688510920675e+005 1.688510920675e+005 1.688510920675e+005 1.688510920675e+005 1.688510920675e+005 1.688510920675e+005 1.688510920675e+005 1.688510920675e+005 1.622373154335e+005 1.622373154336e+005 1.622373154335e+005 1.622373154335e+005 1.622373154335e+005 1.622373154335e+005 1.622373154335e+005 1.622373154335e+005 1.622373154335e+005 1.551243210505e+005 1.551243210505e+005 1.551243210505e+005 1.551243210505e+005 1.551243210505e+005 1.551243210505e+005 1.551243210505e+005 1.551243210505e+005 1.551243210505e+005 1.474157941897e+005 1.474157941897e+005 1.474157941897e+005 1.474157941897e+005 1.474157941897e+005 1.474157941897e+005 1.474157941897e+005 1.474157941897e+005 1.474157941897e+005 1.389827650800e+005 1.389827650801e+005 1.389827650800e+005 1.389827650800e+005 1.389827650800e+005 1.389827650800e+005 1.389827650801e+005 1.389827650801e+005 1.389827650801e+005 1.296464166131e+005 1.296464166131e+005 1.296464166131e+005 1.296464166131e+005 1.296464166131e+005 1.296464166131e+005 1.296464166131e+005 1.296464166131e+005 1.296464166131e+005 1.191477244858e+005 1.191477244859e+005 1.191477244859e+005 1.191477244859e+005 1.191477244859e+005 1.191477244860e+005 1.191477244860e+005 1.191477244860e+005 1.191477244859e+005 1.070894919850e+005 1.070894919844e+005 1.070894919846e+005 1.070894919847e+005 1.070894919846e+005 1.070894919845e+005 1.070894919846e+005 1.070894919846e+005 1.070894919846e+005 9.281437226912e+004 9.281437227270e+004 9.281437227196e+004 9.281437227088e+004 9.281437227141e+004 9.281437227214e+004 9.281437227152e+004 9.281437227175e+004 9.281437227103e+004 7.511283725539e+004 7.511283723184e+004 7.511283722929e+004 7.511283723782e+004 7.511283723168e+004 7.511283722350e+004 7.511283722624e+004 7.511283722631e+004 7.511283723313e+004 5.141340532653e+004 5.141340543171e+004 5.141340544979e+004 5.141340540338e+004 5.141340543376e+004 5.141340547112e+004 5.141340545675e+004 5.141340545889e+004 5.141340542305e+004 1.568062117064e+004 1.568062083517e+004 1.568062077900e+004 1.568062094495e+004 1.568062084106e+004 1.568062072916e+004 1.568062078702e+004 1.568062075952e+004 1.568062089403e+004 -3.259292690302e+004 -3.259292423835e+004 -3.259292377176e+004 -3.259292528688e+004 -3.259292434382e+004 -3.259292351742e+004 -3.259292414830e+004 -3.259292361550e+004 -3.259292501250e+004 -8.122009183507e+004 -8.122008885655e+004 -8.122008747623e+004 -8.122008887546e+004 -8.122008899705e+004 -8.122008928540e+004 -8.122008910180e+004 -8.122008958378e+004 -8.122008750882e+004 -1.298092283551e+005 -1.298092273273e+005 -1.298092260524e+005 -1.298092269404e+005 -1.298092275268e+005 -1.298092273485e+005 -1.298092275150e+005 -1.298092262684e+005 -1.298092262557e+005 -1.783627262656e+005 -1.783627243458e+005 -1.783627231789e+005 -1.783627235427e+005 -1.783627230767e+005 -1.783627215953e+005 -1.783627233575e+005 -1.783627227921e+005 -1.783627222622e+005 -2.268827508104e+005 -2.268827479516e+005 -2.268827472750e+005 -2.268827454448e+005 -2.268827455469e+005 -2.268827452832e+005 -2.268827455486e+005 -2.268827442258e+005 -2.268827435032e+005 -2.753712562849e+005 -2.753712553530e+005 -2.753712543252e+005 -2.753712529635e+005 -2.753712523678e+005 -2.753712514864e+005 -2.753712515955e+005 -2.753712502034e+005 -2.753712507265e+005 -3.238300864016e+005 -3.238300862524e+005 -3.238300840862e+005 -3.238300853858e+005 -3.238300830877e+005 -3.238300826586e+005 -3.238300823808e+005 -3.238300812395e+005 -3.238300801454e+005 -3.722609516910e+005 -3.722609507009e+005 -3.722609516375e+005 -3.722609493632e+005 -3.722609490412e+005 -3.722609478903e+005 -3.722609476644e+005 -3.722609474708e+005 -3.722609463976e+005 -4.206654707116e+005 -4.206654722906e+005 -4.206654716547e+005 -4.206654714769e+005 -4.206654700472e+005 -4.206654696186e+005 -4.206654687635e+005 -4.206654673695e+005 -4.206654666947e+005 -4.690451858353e+005 -4.690451877153e+005 -4.690451884466e+005 -4.690451869830e+005 -4.690451853740e+005 -4.690451854778e+005 -4.690451839068e+005 -4.690451825578e+005 -4.690451824010e+005 -5.174015860286e+005 -5.174015883652e+005 -5.174015882190e+005 -5.174015881859e+005 -5.174015872152e+005 -5.174015854414e+005 -5.174015842524e+005 -5.174015839573e+005 -5.174015832811e+005 -5.657361314263e+005 -5.657361294845e+005 -5.657361303472e+005 -5.657361302817e+005 -5.657361299679e+005 -5.657361274083e+005 -5.657361263858e+005 -5.657361271851e+005 -5.657361268548e+005 -6.140502463445e+005 -6.140502457784e+005 -6.140502455417e+005 -6.140502454454e+005 -6.140502444770e+005 -6.140502422411e+005 -6.140502428863e+005 -6.140502422555e+005 -6.140502425864e+005 -6.623453544801e+005 -6.623453537023e+005 -6.623453536540e+005 -6.623453522249e+005 -6.623453520732e+005 -6.623453510294e+005 -6.623453507516e+005 -6.623453501614e+005 -6.623453508699e+005 -7.106228765578e+005 -7.106228756571e+005 -7.106228760277e+005 -7.106228756604e+005 -7.106228745255e+005 -7.106228744067e+005 -7.106228737867e+005 -7.106228737173e+005 -7.106228725237e+005 -7.588842462000e+005 -7.588842468709e+005 -7.588842476464e+005 -7.588842471857e+005 -7.588842464497e+005 -7.588842467503e+005 -7.588842461010e+005 -7.588842461351e+005 -7.588842458619e+005 -8.071309159770e+005 -8.071309167475e+005 -8.071309172911e+005 -8.071309167063e+005 -8.071309166609e+005 -8.071309168833e+005 -8.071309160677e+005 -8.071309165989e+005 -8.071309166690e+005 -8.553643486552e+005 -8.553643487691e+005 -8.553643491126e+005 -8.553643492382e+005 -8.553643480954e+005 -8.553643479352e+005 -8.553643482396e+005 -8.553643485052e+005 -8.553643483479e+005 -9.035860165258e+005 -9.035860173479e+005 -9.035860179797e+005 -9.035860179071e+005 -9.035860176028e+005 -9.035860169245e+005 -9.035860169245e+005 -9.035860170946e+005 -9.035860172068e+005 -9.517974054710e+005 -9.517974059029e+005 -9.517974061546e+005 -9.517974060046e+005 -9.517974060978e+005 -9.517974056390e+005 -9.517974056384e+005 -9.517974058023e+005 -9.517974056443e+005 -1.000000000000e+006 -1.000000000000e+006 -1.000000000000e+006 -1.000000000000e+006 -1.000000000000e+006 -1.000000000000e+006 -1.000000000000e+006 -1.000000000000e+006 -1.000000000000e+006 
        </DataArray>
        <DataArray type="Float64" Name="NONWET_PRESSURE" format="ascii">