<?xml version="1.0"?>
<VTKFile type="UnstructuredGrid" version="0.1" byte_order="LittleEndian">
  <UnstructuredGrid>
    <Piece NumberOfPoints="909" NumberOfCells="800">
      <Points>
        <DataArray type="Float64" NumberOfComponents="3" format="ascii">
          0.000000000000e+000 0.000000000000e+000 0.000000000000e+000
          2.000000000000e+000 0.000000000000e+000 0.000000000000e+000
          2.000000000000e+000 2.500000000000e+000 0.000000000000e+000
          0.000000000000e+000 2.500000000000e+000 0.000000000000e+000
          2.000000000000e+000 5.000000000000e+000 0.000000000000e+000
          0.000000000000e+000 5.000000000000e+000 0.000000000000e+000
          2.000000000000e+000 7.500000000000e+000 0.000000000000e+000
          0.000000000000e+000 7.500000000000e+000 0.000000000000e+000
          2.000000000000e+000 1.000000000000e+001 0.000000000000e+000
          0.000000000000e+000 1.000000000000e+001 0.000000000000e+000
          2.000000000000e+000 1.250000000000e+001 0.000000000000e+000
          0.000000000000e+000 1.250000000000e+001 0.000000000000e+000
          2.000000000000e+000 1.500000000000e+001 0.000000000000e+000
          0.000000000000e+000 1.500000000000e+001 0.000000000000e+000
          2.000000000000e+000 1.750000000000e+001 0.000000000000e+000
          0.000000000000e+000 1.750000000000e+001 0.000000000000e+000
          2.000000000000e+000 2.000000000000e+001 0.000000000000e+000
          0.000000000000e+000 2.000000000000e+001 0.000000000000e+000
          4.000000000000e+000 0.000000000000e+000 0.000000000000e+000
          4.000000000000e+000 2.500000000000e+000 0.000000000000e+000
          4.000000000000e+000 5.000000000000e+000 0.000000000000e+000
          4.000000000000e+000 7.500000000000e+000 0.000000000000e+000
          4.000000000000e+000 1.000000000000e+001 0.000000000000e+000
          4.000000000000e+000 1.250000000000e+001 0.000000000000e+000
          4.000000000000e+000 1.500000000000e+001 0.000000000000e+000
          4.000000000000e+000 1.750000000000e+001 0.000000000000e+000
          4.000000000000e+000 2.000000000000e+001 0.000000000000e+000
          6.000000000000e+000 0.000000000000e+000 0.000000000000e+000
          6.000000000000e+000 2.500000000000e+000 0.000000000000e+000
          6.000000000000e+000 5.000000000000e+000 0.000000000000e+000
          6.000000000000e+000 7.500000000000e+000 0.000000000000e+000
          6.000000000000e+000 1.000000000000e+001 0.000000000000e+000
          6.000000000000e+000 1.250000000000e+001 0.000000000000e+000
          6.000000000000e+000 1.500000000000e+001 0.000000000000e+000
          6.000000000000e+000 1.750000000000e+001 0.000000000000e+000
          6.000000000000e+000 2.000000000000e+001 0.000000000000e+000
          8.000000000000e+000 0.000000000000e+000 0.000000000000e+000
          8.000000000000e+000 2.500000000000e+000 0.000000000000e+000
          8.000000000000e+000 5.000000000000e+000 0.000000000000e+000
          8.000000000000e+000 7.500000000000e+000 0.000000000000e+000
          8.000000000000e+000 1.000000000000e+001 0.000000000000e+000
          8.000000000000e+000 1.250000000000e+001 0.000000000000e+000
          8.000000000000e+000 1.500000000000e+001 0.000000000000e+000
          8.000000000000e+000 1.750000000000e+001 0.000000000000e+000
          8.000000000000e+000 2.000000000000e+001 0.000000000000e+000
          1.000000000000e+001 0.000000000000e+000 0.000000000000e+000
          1.000000000000e+001 2.500000000000e+000 0.000000000000e+000
          1.000000000000e+001 5.000000000000e+000 0.000000000000e+000
          1.000000000000e+001 7.500000000000e+000 0.000000000000e+000
          1.000000000000e+001 1.000000000000e+001 0.000000000000e+000
          1.000000000000e+001 1.250000000000e+001 0.000000000000e+000
          1.000000000000e+001 1.500000000000e+001 0.000000000000e+000
          1.000000000000e+001 1.750000000000e+001 0.000000000000e+000
          1.000000000000e+001 2.000000000000e+001 0.000000000000e+000
          1.200000000000e+001 0.000000000000e+000 0.000000000000e+000
          1.200000000000e+001 2.500000000000e+000 0.000000000000e+000
          1.200000000000e+001 5.000000000000e+000 0.000000000000e+000
          1.200000000000e+001 7.500000000000e+000 0.000000000000e+000
          1.200000000000e+001 1.000000000000e+001 0.000000000000e+000
          1.200000000000e+001 1.250000000000e+001 0.000000000000e+000
          1.200000000000e+001 1.500000000000e+001 0.000000000000e+000
          1.200000000000e+001 1.750000000000e+001 0.000000000000e+000
          1.200000000000e+001 2.000000000000e+001 0.000000000000e+000
          1.400000000000e+001 0.000000000000e+000 0.000000000000e+000
          1.400000000000e+001 2.500000000000e+000 0.000000000000e+000
          1.400000000000e+001 5.000000000000e+000 0.000000000000e+000
          1.400000000000e+001 7.500000000000e+000 0.000000000000e+000
          1.400000000000e+001 1.000000000000e+001 0.000000000000e+000
          1.400000000000e+001 1.250000000000e+001 0.000000000000e+000
          1.400000000000e+001 1.500000000000e+001 0.000000000000e+000
          1.400000000000e+001 1.750000000000e+001 0.000000000000e+000
          1.400000000000e+001 2.000000000000e+001 0.000000000000e+000
          1.600000000000e+001 0.000000000000e+000 0.000000000000e+000
          1.600000000000e+001 2.500000000000e+000 0.000000000000e+000
          1.600000000000e+001 5.000000000000e+000 0.000000000000e+000
          1.600000000000e+001 7.500000000000e+000 0.000000000000e+000
          1.600000000000e+001 1.000000000000e+001 0.000000000000e+000
          1.600000000000e+001 1.250000000000e+001 0.000000000000e+000
          1.600000000000e+001 1.500000000000e+001 0.000000000000e+000
          1.600000000000e+001 1.750000000000e+001 0.000000000000e+000
          1.600000000000e+001 2.000000000000e+001 0.000000000000e+000
          1.800000000000e+001 0.000000000000e+000 0.000000000000e+000
          1.800000000000e+001 2.500000000000e+000 0.000000000000e+000
          1.800000000000e+001 5.000000000000e+000 0.000000000000e+000
          1.800000000000e+001 7.500000000000e+000 0.000000000000e+000
          1.800000000000e+001 1.000000000000e+001 0.000000000000e+000
          1.800000000000e+001 1.250000000000e+001 0.000000000000e+000
          1.800000000000e+001 1.500000000000e+001 0.000000000000e+000
          1.800000000000e+001 1.750000000000e+001 0.000000000000e+000
          1.800000000000e+001 2.000000000000e+001 0.000000000000e+000
          2.000000000000e+001 0.000000000000e+000 0.000000000000e+000
          2.000000000000e+001 2.500000000000e+000 0.000000000000e+000
          2.000000000000e+001 5.000000000000e+000 0.000000000000e+000
          2.000000000000e+001 7.500000000000e+000 0.000000000000e+000
          2.000000000000e+001 1.000000000000e+001 0.000000000000e+000
          2.000000000000e+001 1.250000000000e+001 0.000000000000e+000
          2.000000000000e+001 1.500000000000e+001 0.000000000000e+000
          2.000000000000e+001 1.750000000000e+001 0.000000000000e+000
          2.000000000000e+001 2.000000000000e+001 0.000000000000e+000
          2.200000000000e+001 0.000000000000e+000 0.000000000000e+000
          2.200000000000e+001 2.500000000000e+000 0.000000000000e+000
          2.200000000000e+001 5.000000000000e+000 0.000000000000e+000
          2.200000000000e+001 7.500000000000e+000 0.000000000000e+000
          2.200000000000e+001 1.000000000000e+001 0.000000000000e+000
          2.200000000000e+001 1.250000000000e+001 0.000000000000e+000
          2.200000000000e+001 1.500000000000e+001 0.000000000000e+000
          2.200000000000e+001 1.750000000000e+001 0.000000000000e+000
          2.200000000000e+001 2.000000000000e+001 0.000000000000e+000
          2.400000000000e+001 0.000000000000e+000 0.000000000000e+000
          2.400000000000e+001 2.500000000000e+000 0.000000000000e+000
          2.400000000000e+001 5.000000000000e+000 0.000000000000e+000
          2.400000000000e+001 7.500000000000e+000 0.000000000000e+000
          2.400000000000e+001 1.000000000000e+001 0.000000000000e+000
          2.400000000000e+001 1.250000000000e+001 0.000000000000e+000
          2.400000000000e+001 1.500000000000e+001 0.000000000000e+000
          2.400000000000e+001 1.750000000000e+001 0.000000000000e+000
          2.400000000000e+001 2.000000000000e+001 0.000000000000e+000
          2.600000000000e+001 0.000000000000e+000 0.000000000000e+000
          2.600000000000e+001 2.500000000000e+000 0.000000000000e+000
          2.600000000000e+001 5.000000000000e+000 0.000000000000e+000
          2.600000000000e+001 7.500000000000e+000 0.000000000000e+000
          2.600000000000e+001 1.000000000000e+001 0.000000000000e+000
          2.600000000000e+001 1.250000000000e+001 0.000000000000e+000
          2.600000000000e+001 1.500000000000e+001 0.000000000000e+000
          2.600000000000e+001 1.750000000000e+001 0.000000000000e+000
          2.600000000000e+001 2.000000000000e+001 0.000000000000e+000
          2.800000000000e+001 0.000000000000e+000 0.000000000000e+000
          2.800000000000e+001 2.500000000000e+000 0.000000000000e+000
          2.800000000000e+001 5.000000000000e+000 0.000000000000e+000
          2.800000000000e+001 7.500000000000e+000 0.000000000000e+000
          2.800000000000e+001 1.000000000000e+001 0.000000000000e+000
          2.800000000000e+001 1.250000000000e+001 0.000000000000e+000
          2.800000000000e+001 1.500000000000e+001 0.000000000000e+000
          2.800000000000e+001 1.750000000000e+001 0.000000000000e+000
          2.800000000000e+001 2.000000000000e+001 0.000000000000e+000
          3.000000000000e+001 0.000000000000e+000 0.000000000000e+000
          3.000000000000e+001 2.500000000000e+000 0.000000000000e+000
          3.000000000000e+001 5.000000000000e+000 0.000000000000e+000
          3.000000000000e+001 7.500000000000e+000 0.000000000000e+000
[...]
      <PointData Scalars="CAPILLARY_PRESSURE">
        <DataArray type="Float64" Name="CAPILLARY_PRESSURE" format="ascii">
          5.005552602484e+004 1.249805704543e+004 1.249805700081e+004 5.005552605403e+004 1.249805611379e+004 5.005552647704e+004 1.249805728091e+004 5.005552571007e+004 1.249805731991e+004 5.005552551600e+004 1.249805674317e+004 5.005552580802e+004 1.249805716520e+004 5.005552568985e+004 1.249805649673e+004 5.005552615383e+004 1.249805694753e+004 5.005552598855e+004 -3.573856343975e+004 -3.573855884012e+004 -3.573855650569e+004 -3.573855696194e+004 -3.573855542974e+004 -3.573854967230e+004 -3.573855257674e+004 -3.573856028904e+004 -3.573855426529e+004 -8.262854718411e+004 -8.262855301488e+004 -8.262854382095e+004 -8.262854761665e+004 -8.262853939574e+004 -8.262853206031e+004 -8.262853248041e+004 -8.262854148387e+004 -8.262854021683e+004 -1.280461310609e+005 -1.280461427746e+005 -1.280461362617e+005 -1.280461439097e+005 -1.280461390351e+005 -1.280461223497e+005 -1.280461242173e+005 -1.280461262412e+005 -1.280461290995e+005 -1.719921087689e+005 -1.719921188051e+005 -1.719921210146e+005 -1.719921155718e+005 -1.719921250242e+005 -1.719921021948e+005 -1.719921008039e+005 -1.719920887623e+005 -1.719920838222e+005 -2.144677902778e+005 -2.144677889480e+005 -2.144677782103e+005 -2.144677686751e+005 -2.144677799381e+005 -2.144677865888e+005 -2.144677756557e+005 -2.144677648101e+005 -2.144677682512e+005 -2.554787528280e+005 -2.554787471250e+005 -2.554787341746e+005 -2.554787304034e+005 -2.554787337946e+005 -2.554787414297e+005 -2.554787378836e+005 -2.554787350160e+005 -2.554787236954e+005 -2.950320336520e+005 -2.950320133173e+005 -2.950320102233e+005 -2.950320116437e+005 -2.950320142561e+005 -2.950320200680e+005 -2.950320198549e+005 -2.950320153704e+005 -2.950320028671e+005 -3.331374857264e+005 -3.331374818180e+005 -3.331374702822e+005 -3.331374671853e+005 -3.331374914850e+005 -3.331374800518e+005 -3.331374770679e+005 -3.331374679034e+005 -3.331374651300e+005 -3.698069844013e+005 -3.698069756492e+005 -3.698069815859e+005 -3.698069825634e+005 -3.698069775787e+005 -3.698069776754e+005 -3.698069668289e+005 -3.698069716840e+005 -3.698069658140e+005 -4.050545193075e+005 -4.050545107672e+005 -4.050545073017e+005 -4.050545124102e+005 -4.050545096232e+005 -4.050545052274e+005 -4.050545108584e+005 -4.050545005129e+005 -4.050544857846e+005 -4.388968244048e+005 -4.388968285560e+005 -4.388968219744e+005 -4.388968115618e+005 -4.388968095988e+005 -4.388968081625e+005 -4.388968056551e+005 -4.388968060844e+005 -4.388968000870e+005 -4.713533470638e+005 -4.713533470069e+005 -4.713533369791e+005 -4.713533357854e+005 -4.713533329903e+005 -4.713533221188e+005 -4.713533247268e+005 -4.713533251332e+005 -4.713533217446e+005 -5.024459230048e+005 -5.024459140616e+005 -5.024459193515e+005 -5.024459134196e+005 -5.024459162411e+005 -5.024459147522e+005 -5.024459082101e+005 -5.024459060187e+005 -5.024459056249e+005 -5.321985484975e+005 -5.321985468524e+005 -5.321985584512e+005 -5.321985517881e+005 -5.321985462885e+005 -5.321985520872e+005 -5.321985501119e+005 -5.321985423010e+005 -5.321985375116e+005 -5.606371191476e+005 -5.606371177558e+005 -5.606371365521e+005 -5.606371343746e+005 -5.606371285250e+005 -5.606371231323e+005 -5.606371281592e+005 -5.606371107265e+005 -5.606371099344e+005 -5.877892053481e+005 -5.877892025625e+005 -5.877892182068e+005 -5.877892238662e+005 -5.877892217098e+005 -5.877892156895e+005 -5.877892156234e+005 -5.877892059999e+005 -5.877891962058e+005 -6.136838755873e+005 -6.136838776527e+005 -6.136838869889e+005 -6.136838940509e+005 -6.136838987688e+005 -6.136838877142e+005 -6.136838746982e+005 -6.136838725808e+005 -6.136838789117e+005 -6.383515222455e+005 -6.383515271486e+005 -6.383515301783e+005 -6.383515279410e+005 -6.383515265224e+005 -6.383515209117e+005 -6.383515129632e+005 -6.383515062972e+005 -6.383515203225e+005 -6.618236480579e+005 -6.618236551186e+005 -6.618236526650e+005 -6.618236528893e+005 -6.618236526882e+005 -6.618236398128e+005 -6.618236376178e+005 -6.618236332237e+005 -6.618236368127e+005 -6.841327947316e+005 -6.841327913487e+005 -6.841327933449e+005 -6.841327865019e+005 -6.841327806523e+005 -6.841327643945e+005 -6.841327735551e+005 -6.841327674718e+005 -6.841327685111e+005 -7.053122956203e+005 -7.053122962394e+005 -7.053122878684e+005 -7.053122792742e+005 -7.053122705675e+005 -7.053122646483e+005 -7.053122601772e+005 -7.053122581617e+005 -7.053122577274e+005 -7.253962170751e+005 -7.253961895303e+005 -7.253961918544e+005 -7.253961803533e+005 -7.253961663900e+005 -7.253961647813e+005 -7.253961575614e+005 -7.253961460831e+005 -7.253961548906e+005 -7.444191029991e+005 -7.444190946995e+005 -7.444190803015e+005 -7.444190744338e+005 -7.444190624486e+005 -7.444190585971e+005 -7.444190580014e+005 -7.444190502116e+005 -7.444190594300e+005 -7.624160212063e+005 -7.624160054086e+005 -7.624159987737e+005 -7.624159915634e+005 -7.624159765041e+005 -7.624159724227e+005 -7.624159677636e+005 -7.624159765826e+005 -7.624159803517e+005 -7.794222357190e+005 -7.794222395972e+005 -7.794222359126e+005 -7.794222234579e+005 -7.794222138601e+005 -7.794222054611e+005 -7.794222050134e+005 -7.794222151209e+005 -7.794222211057e+005 -7.954732917736e+005 -7.954732820952e+005 -7.954732733495e+005 -7.954732600644e+005 -7.954732560631e+005 -7.954732596741e+005 -7.954732562606e+005 -7.954732529554e+005 -7.954732492738e+005 -8.106046792362e+005 -8.106046743447e+005 -8.106046594056e+005 -8.106046567284e+005 -8.106046511293e+005 -8.106046520591e+005 -8.106046462810e+005 -8.106046481896e+005 -8.106046441481e+005 -8.248519104096e+005 -8.248519068667e+005 -8.248519013457e+005 -8.248519018525e+005 -8.248518923044e+005 -8.248518993109e+005 -8.248518904441e+005 -8.248518883765e+005 -8.248518895917e+005 -8.382503377151e+005 -8.382503527129e+005 -8.382503405822e+005 -8.382503417834e+005 -8.382503438276e+005 -8.382503382690e+005 -8.382503343300e+005 -8.382503301481e+005 -8.382503348354e+005 -8.508350782951e+005 -8.508350890601e+005 -8.508350927861e+005 -8.508350937522e+005 -8.508351038858e+005 -8.508350884638e+005 -8.508350847664e+005 -8.508350754496e+005 -8.508350784996e+005 -8.626408943368e+005 -8.626409095474e+005 -8.626409018387e+005 -8.626409136510e+005 -8.626409184872e+005 -8.626409213245e+005 -8.626409106277e+005 -8.626409037248e+005 -8.626408957738e+005 -8.737021419170e+005 -8.737021527419e+005 -8.737021557849e+005 -8.737021604225e+005 -8.737021629629e+005 -8.737021681325e+005 -8.737021527114e+005 -8.737021377838e+005 -8.737021410339e+005 -8.840526649990e+005 -8.840526720062e+005 -8.840526755337e+005 -8.840526834594e+005 -8.840526888498e+005 -8.840526709576e+005 -8.840526637207e+005 -8.840526622303e+005 -8.840526500683e+005 -8.937257498081e+005 -8.937257540873e+005 -8.937257420942e+005 -8.937257567256e+005 -8.937257577805e+005 -8.937257496059e+005 -8.937257314332e+005 -8.937257287872e+005 -8.937257361260e+005 -9.027540428133e+005 -9.027540274479e+005 -9.027540324006e+005 -9.027540351893e+005 -9.027540389009e+005 -9.027540193587e+005 -9.027540209946e+005 -9.027540083919e+005 -9.027540123127e+005 -9.111694654785e+005 -9.111694707472e+005 -9.111694740354e+005 -9.111694809116e+005 -9.111694760307e+005 -9.111694614134e+005 -9.111694594152e+005 -9.111694549237e+005 -9.111694470827e+005 -9.190032648005e+005 -9.190032706914e+005 -9.190032727804e+005 -9.190032767564e+005 -9.190032722444e+005 -9.190032571101e+005 -9.190032517015e+005 -9.190032485472e+005 -9.190032448243e+005 -9.262858286068e+005 -9.262858222285e+005 -9.262858316927e+005 -9.262858294512e+005 -9.262858213309e+005 -9.262858122266e+005 -9.262857969051e+005 -9.262858034729e+005 -9.262857975055e+005 -9.330466939397e+005 -9.330466869506e+005 -9.330466956580e+005 -9.330466930939e+005 -9.330466853547e+005 -9.330466753595e+005 -9.330466686913e+005 -9.330466591954e+005 -9.330466624491e+005 -9.393145488836e+005 -9.393145500620e+005 -9.393145547363e+005 -9.393145518659e+005 -9.393145481778e+005 -9.393145311333e+005 -9.393145239255e+005 -9.393145252950e+005 -9.393145160228e+005 -9.451171686399e+005 -9.451171770428e+005 -9.451171709056e+005 -9.451171661576e+005 -9.451171639570e+005 -9.451171527577e+005 -9.451171418046e+005 -9.451171376713e+005 -9.451171353823e+005 -9.504813914501e+005 -9.504813760356e+005 -9.504813794387e+005 -9.504813698984e+005 -9.504813694638e+005 -9.504813623743e+005 -9.504813635054e+005 -9.504813424676e+005 -9.504813490604e+005 -9.554330608517e+005 -9.554330656392e+005 -9.554330602044e+005 -9.554330511648e+005 -9.554330490063e+005 -9.554330487569e+005 -9.554330376180e+005 -9.554330318362e+005 -9.554330283059e+005 -9.599971210528e+005 -9.599971252661e+005 -9.599971284162e+005 -9.599971137085e+005 -9.599971057749e+005 -9.599971063527e+005 -9.599970988792e+005 -9.599970950617e+005 -9.599970865752e+005 -9.641974923216e+005 -9.641974946616e+005 -9.641974912725e+005 -9.641974856673e+005 -9.641974780541e+005 -9.641974689625e+005 -9.641974631996e+005 -9.641974603428e+005 -9.641974621942e+005 -9.680571140688e+005 -9.680571079158e+005 -9.680571048535e+005 -9.680570963860e+005 -9.680570904716e+005 -9.680570799356e+005 -9.680570764112e+005 -9.680570706809e+005 -9.680570683338e+005 -9.715979159909e+005 -9.715979129206e+005 -9.715979062725e+005 -9.715978998738e+005 -9.715978887743e+005 -9.715978818811e+005 -9.715978803881e+005 -9.715978738821e+005 -9.715978705208e+005 -9.748408704977e+005 -9.748408685298e+005 -9.748408624864e+005 -9.748408537086e+005 -9.748408461106e+005 -9.748408406908e+005 -9.748408336989e+005 -9.748408307854e+005 -9.748408251393e+005 -9.778059607896e+005 -9.778059560277e+005 -9.778059533711e+005 -9.778059478099e+005 -9.778059413830e+005 -9.778059314259e+005 -9.778059246649e+005 -9.778059199891e+005 -9.778059203428e+005 -9.805122018202e+005 -9.805121996021e+005 -9.805121965234e+005 -9.805121918211e+005 -9.805121846571e+005 -9.805121742727e+005 -9.805121699377e+005 -9.805121641309e+005 -9.805121630617e+005 -9.829776529499e+005 -9.829776521001e+005 -9.829776496082e+005 -9.829776450715e+005 -9.829776398102e+005 -9.829776328917e+005 -9.829776290505e+005 -9.829776213031e+005 -9.829776251672e+005 -9.852194369711e+005 -9.852194324902e+005 -9.852194319407e+005 -9.852194303893e+005 -9.852194288392e+005 -9.852194213073e+005 -9.852194174098e+005 -9.852194146020e+005 -9.852194134968e+005 -9.872537516747e+005 -9.872537591308e+005 -9.872537557435e+005 -9.872537526119e+005 -9.872537519397e+005 -9.872537502245e+005 -9.872537443591e+005 -9.872537399847e+005 -9.872537380968e+005 -9.890959230111e+005 -9.890959254804e+005 -9.890959245527e+005 -9.890959189922e+005 -9.890959166588e+005 -9.890959149507e+005 -9.890959111892e+005 -9.890959115814e+005 -9.890959083880e+005 -9.907603660674e+005 -9.907603653456e+005 -9.907603637460e+005 -9.907603610246e+005 -9.907603594477e+005 -9.907603585776e+005 -9.907603546536e+005 -9.907603584147e+005 -9.907603549651e+005 -9.922606656163e+005 -9.922606663125e+005 -9.922606643912e+005 -9.922606606626e+005 -9.922606596470e+005 -9.922606603182e+005 -9.922606568916e+005 -9.922606575688e+005 -9.922606554437e+005 -9.936095863114e+005 -9.936095866764e+005 -9.936095846997e+005 -9.936095841070e+005 -9.936095819694e+005 -9.936095828286e+005 -9.936095813188e+005 -9.936095802393e+005 -9.936095823232e+005 -9.948190979869e+005 -9.948190993460e+005 -9.948191007650e+005 -9.948191005080e+005 -9.948191024019e+005 -9.948190983960e+005 -9.948190974462e+005 -9.948190984896e+005 -9.948191002299e+005 -9.959004173303e+005 -9.959004180472e+005 -9.959004217916e+005 -9.959004218966e+005 -9.959004205741e+005 -9.959004168821e+005 -9.959004182803e+005 -9.959004195104e+005 -9.959004206408e+005 -9.968640203364e+005 -9.968640237247e+005 -9.968640239394e+005 -9.968640233222e+005 -9.968640203096e+005 -9.968640211162e+005 -9.968640230681e+005 -9.968640203938e+005 -9.968640212462e+005 -9.977196799345e+005 -9.977196802681e+005 -9.977196801447e+005 -9.977196796238e+005 -9.977196786911e+005 -9.977196769295e+005 -9.977196794192e+005 -9.977196777496e+005 -9.977196774459e+005 -9.984765004247e+005 -9.984764974052e+005 -9.984764990814e+005 -9.984764980718e+005 -9.984764952354e+005 -9.984764964670e+005 -9.984764980648e+005 -9.984764974449e+005 -9.984764972894e+005 -9.991429437856e+005 -9.991429450974e+005 -9.991429451572e+005 -9.991429458488e+005 -9.991429422615e+005 -9.991429422386e+005 -9.991429455015e+005 -9.991429448819e+005 -9.991429433580e+005 -9.997268817195e+005 -9.997268827943e+005 -9.997268820932e+005 -9.997268808351e+005 -9.997268792684e+005 -9.997268802218e+005 -9.997268830764e+005 -9.997268826845e+005 -9.997268801952e+005 -1.000235589963e+006 -1.000235590937e+006 -1.000235590729e+006 -1.000235591313e+006 -1.000235588385e+006 -1.000235589792e+006 -1.000235591892e+006 -1.000235590896e+006 -1.000235589225e+006 -1.000675811265e+006 -1.000675812260e+006 -1.000675813551e+006 -1.000675810906e+006 -1.000675811128e+006 -1.000675812222e+006 -1.000675812537e+006 -1.000675813526e+006 -1.000675810109e+006 -1.001053770014e+006 -1.001053770911e+006 -1.001053770473e+006 -1.001053768489e+006 -1.001053770501e+006 -1.001053770040e+006 -1.001053769172e+006 -1.001053769430e+006 -1.001053768817e+006 -1.001375208721e+006 -1.001375207950e+006 -1.001375207518e+006 -1.001375207148e+006 -1.001375204253e+006 -1.001375204366e+006 -1.001375206878e+006 -1.001375205552e+006 -1.001375205319e+006 -1.001645409038e+006 -1.001645406555e+006 -1.001645406324e+006 -1.001645404515e+006 -1.001645402802e+006 -1.001645403174e+006 -1.001645405585e+006 -1.001645404372e+006 -1.001645405330e+006 -1.001869225832e+006 -1.001869225074e+006 -1.001869225060e+006 -1.001869224230e+006 -1.001869223451e+006 -1.001869223352e+006 -1.001869224569e+006 -1.001869224947e+006 -1.001869224699e+006 -1.002051119175e+006 -1.002051121361e+006 -1.002051121861e+006 -1.002051122571e+006 -1.002051121151e+006 -1.002051121908e+006 -1.002051123206e+006 -1.002051121913e+006 -1.002051121123e+006 -1.002195180043e+006 -1.002195177942e+006 -1.002195180515e+006 -1.002195180664e+006 -1.002195179370e+006 -1.002195181724e+006 -1.002195180311e+006 -1.002195180542e+006 -1.002195180002e+006 -1.002305134398e+006 -1.002305133034e+006 -1.002305132858e+006 -1.002305132605e+006 -1.002305132240e+006 -1.002305134080e+006 -1.002305133737e+006 -1.002305134253e+006 -1.002305132346e+006 -1.002384387804e+006 -1.002384391133e+006 -1.002384391585e+006 -1.002384391374e+006 -1.002384390748e+006 -1.002384392352e+006 -1.002384392043e+006 -1.002384392201e+006 -1.002384392794e+006 -1.002436062062e+006 -1.002436065482e+006 -1.002436064556e+006 -1.002436064588e+006 -1.002436067569e+006 -1.002436065628e+006 -1.002436066987e+006 -1.002436067016e+006 -1.002436067308e+006 -1.002462985973e+006 -1.002462987516e+006 -1.002462987951e+006 -1.002462986905e+006 -1.002462988259e+006 -1.002462988697e+006 -1.002462989840e+006 -1.002462988388e+006 -1.002462988624e+006 -1.002467732933e+006 -1.002467731801e+006 -1.002467731994e+006 -1.002467733298e+006 -1.002467731928e+006 -1.002467732751e+006 -1.002467732856e+006 -1.002467732411e+006 -1.002467731980e+006 -1.002452635292e+006 -1.002452636451e+006 -1.002452634860e+006 -1.002452635467e+006 -1.002452635286e+006 -1.002452636048e+006 -1.002452636129e+006 -1.002452635047e+006 -1.002452636277e+006 -1.002419817858e+006 -1.002419814932e+006 -1.002419814264e+006 -1.002419815737e+006 -1.002419814857e+006 -1.002419814104e+006 -1.002419814719e+006 -1.002419814182e+006 -1.002419815565e+006 -1.002371191324e+006 -1.002371188301e+006 -1.002371186823e+006 -1.002371188175e+006 -1.002371188312e+006 -1.002371188627e+006 -1.002371188450e+006 -1.002371188928e+006 -1.002371186851e+006 -1.002308491149e+006 -1.002308490097e+006 -1.002308488777e+006 -1.002308489638e+006 -1.002308490218e+006 -1.002308490045e+006 -1.002308490217e+006 -1.002308488971e+006 -1.002308488960e+006 -1.002233287790e+006 -1.002233285862e+006 -1.002233284675e+006 -1.002233285021e+006 -1.002233284547e+006 -1.002233283066e+006 -1.002233284829e+006 -1.002233284265e+006 -1.002233283735e+006 -1.002146990422e+006 -1.002146987558e+006 -1.002146986871e+006 -1.002146985031e+006 -1.002146985126e+006 -1.002146984861e+006 -1.002146985125e+006 -1.002146983803e+006 -1.002146983082e+006 -1.002050868941e+006 -1.002050868007e+006 -1.002050866974e+006 -1.002050865604e+006 -1.002050865005e+006 -1.002050864121e+006 -1.002050864229e+006 -1.002050862837e+006 -1.002050863359e+006 -1.001946073596e+006 -1.001946073445e+006 -1.001946071275e+006 -1.001946072571e+006 -1.001946070270e+006 -1.001946069838e+006 -1.001946069559e+006 -1.001946068417e+006 -1.001946067323e+006 -1.001833636466e+006 -1.001833635475e+006 -1.001833636409e+006 -1.001833634132e+006 -1.001833633808e+006 -1.001833632656e+006 -1.001833632429e+006 -1.001833632235e+006 -1.001833631161e+006 -1.001714485021e+006 -1.001714486599e+006 -1.001714485962e+006 -1.001714485783e+006 -1.001714484351e+006 -1.001714483922e+006 -1.001714483066e+006 -1.001714481671e+006 -1.001714480997e+006 -1.001589460204e+006 -1.001589462083e+006 -1.001589462814e+006 -1.001589461349e+006 -1.001589459739e+006 -1.001589459842e+006 -1.001589458271e+006 -1.001589456921e+006 -1.001589456764e+006 -1.001459314450e+006 -1.001459316787e+006 -1.001459316640e+006 -1.001459316607e+006 -1.001459315635e+006 -1.001459313861e+006 -1.001459312671e+006 -1.001459312376e+006 -1.001459311700e+006 -1.001324732819e+006 -1.001324730878e+006 -1.001324731740e+006 -1.001324731675e+006 -1.001324731360e+006 -1.001324728801e+006 -1.001324727778e+006 -1.001324728577e+006 -1.001324728247e+006 -1.001186325161e+006 -1.001186324595e+006 -1.001186324358e+006 -1.001186324262e+006 -1.001186323294e+006 -1.001186321057e+006 -1.001186321702e+006 -1.001186321071e+006 -1.001186321402e+006 -1.001044655105e+006 -1.001044654327e+006 -1.001044654279e+006 -1.001044652850e+006 -1.001044652698e+006 -1.001044651654e+006 -1.001044651376e+006 -1.001044650786e+006 -1.001044651495e+006 -1.000900231419e+006 -1.000900230519e+006 -1.000900230889e+006 -1.000900230522e+006 -1.000900229388e+006 -1.000900229269e+006 -1.000900228649e+006 -1.000900228579e+006 -1.000900227385e+006 -1.000753522030e+006 -1.000753522701e+006 -1.000753523477e+006 -1.000753523016e+006 -1.000753522280e+006 -1.000753522581e+006 -1.000753521931e+006 -1.000753521965e+006 -1.000753521692e+006 -1.000604963427e+006 -1.000604964198e+006 -1.000604964741e+006 -1.000604964157e+006 -1.000604964111e+006 -1.000604964333e+006 -1.000604963518e+006 -1.000604964049e+006 -1.000604964119e+006 -1.000454959067e+006 -1.000454959181e+006 -1.000454959524e+006 -1.000454959650e+006 -1.000454958507e+006 -1.000454958346e+006 -1.000454958651e+006 -1.000454958917e+006 -1.000454958760e+006 -1.000303887801e+006 -1.000303888623e+006 -1.000303889255e+006 -1.000303889182e+006 -1.000303888878e+006 -1.000303888199e+006 -1.000303888199e+006 -1.000303888370e+006 -1.000303888481e+006 -1.000152117582e+006 -1.000152118014e+006 -1.000152118266e+006 -1.000152118116e+006 -1.000152118209e+006 -1.000152117750e+006 -1.000152117750e+006 -1.000152117914e+006 -1.000152117756e+006 -1.000000000000e+006 -1.000000000000e+006 -1.000000000000e+006 -1.000000000000e+006 -1.000000000000e+006 -1.000000000000e+006 -1.000000000000e+006 -1.000000000000e+006 -1.000000000000e+006 
        </DataArray>
        <DataArray type="Float64" Name="NONWET_PRESSURE" format="ascii">