<?xml version="1.0"?>
<VTKFile type="UnstructuredGrid" version="0.1" byte_order="LittleEndian">
  <UnstructuredGrid>
    <Piece NumberOfPoints="909" NumberOfCells="800">
      <Points>
        <DataArray type="Float64" NumberOfComponents="3" format="ascii">
          0.000000000000e+000 0.000000000000e+000 0.000000000000e+000
          2.000000000000e+000 0.000000000000e+000 0.000000000000e+000
          2.000000000000e+000 2.500000000000e+000 0.000000000000e+000
          0.000000000000e+000 2.500000000000e+000 0.000000000000e+000
          2.000000000000e+000 5.000000000000e+000 0.000000000000e+000
          0.000000000000e+000 5.000000000000e+000 0.000000000000e+000
          2.000000000000e+000 7.500000000000e+000 0.000000000000e+000
          0.000000000000e+000 7.500000000000e+000 0.000000000000e+000
          2.000000000000e+000 1.000000000000e+001 0.000000000000e+000
          0.000000000000e+000 1.000000000000e+001 0.000000000000e+000
          2.000000000000e+000 1.250000000000e+001 0.000000000000e+000
          0.000000000000e+000 1.250000000000e+001 0.000000000000e+000
          2.000000000000e+000 1.500000000000e+001 0.000000000000e+000
          0.000000000000e+000 1.500000000000e+001 0.000000000000e+000
          2.000000000000e+000 1.750000000000e+001 0.000000000000e+000
          0.000000000000e+000 1.750000000000e+001 0.000000000000e+000
          2.000000000000e+000 2.000000000000e+001 0.000000000000e+000
          0.000000000000e+000 2.000000000000e+001 0.000000000000e+000
          4.000000000000e+000 0.000000000000e+000 0.000000000000e+000
          4.000000000000e+000 2.500000000000e+000 0.000000000000e+000
          4.000000000000e+000 5.000000000000e+000 0.000000000000e+000
          4.000000000000e+000 7.500000000000e+000 0.000000000000e+000
          4.000000000000e+000 1.000000000000e+001 0.000000000000e+000
          4.000000000000e+000 1.250000000000e+001 0.000000000000e+000
          4.000000000000e+000 1.500000000000e+001 0.000000000000e+000
          4.000000000000e+000 1.750000000000e+001 0.000000000000e+000
          4.000000000000e+000 2.000000000000e+001 0.000000000000e+000
          6.000000000000e+000 0.000000000000e+000 0.000000000000e+000
          6.000000000000e+000 2.500000000000e+000 0.000000000000e+000
          6.000000000000e+000 5.000000000000e+000 0.000000000000e+000
          6.000000000000e+000 7.500000000000e+000 0.000000000000e+000
          6.000000000000e+000 1.000000000000e+001 0.000000000000e+000
          6.000000000000e+000 1.250000000000e+001 0.000000000000e+000
          6.000000000000e+000 1.500000000000e+001 0.000000000000e+000
          6.000000000000e+000 1.750000000000e+001 0.000000000000e+000
          6.000000000000e+000 2.000000000000e+001 0.000000000000e+000
          8.000000000000e+000 0.000000000000e+000 0.000000000000e+000
          8.000000000000e+000 2.500000000000e+000 0.000000000000e+000
          8.000000000000e+000 5.000000000000e+000 0.000000000000e+000
          8.000000000000e+000 7.500000000000e+000 0.000000000000e+000
          8.000000000000e+000 1.000000000000e+001 0.000000000000e+000
          8.000000000000e+000 1.250000000000e+001 0.000000000000e+000
          8.000000000000e+000 1.500000000000e+001 0.000000000000e+000
          8.000000000000e+000 1.750000000000e+001 0.000000000000e+000
          8.000000000000e+000 2.000000000000e+001 0.000000000000e+000
          1.000000000000e+001 0.000000000000e+000 0.000000000000e+000
          1.000000000000e+001 2.500000000000e+000 0.000000000000e+000
          1.000000000000e+001 5.000000000000e+000 0.000000000000e+000
          1.000000000000e+001 7.500000000000e+000 0.000000000000e+000
          1.000000000000e+001 1.000000000000e+001 0.000000000000e+000
          1.000000000000e+001 1.250000000000e+001 0.000000000000e+000
          1.000000000000e+001 1.500000000000e+001 0.000000000000e+000
          1.000000000000e+001 1.750000000000e+001 0.000000000000e+000
          1.000000000000e+001 2.000000000000e+001 0.000000000000e+000
          1.200000000000e+001 0.000000000000e+000 0.000000000000e+000
          1.200000000000e+001 2.500000000000e+000 0.000000000000e+000
          1.200000000000e+001 5.000000000000e+000 0.000000000000e+000
          1.200000000000e+001 7.500000000000e+000 0.000000000000e+000
          1.200000000000e+001 1.000000000000e+001 0.000000000000e+000
          1.200000000000e+001 1.250000000000e+001 0.000000000000e+000
          1.200000000000e+001 1.500000000000e+001 0.000000000000e+000
          1.200000000000e+001 1.750000000000e+001 0.000000000000e+000
          1.200000000000e+001 2.000000000000e+001 0.000000000000e+000
          1.400000000000e+001 0.000000000000e+000 0.000000000000e+000
          1.400000000000e+001 2.500000000000e+000 0.000000000000e+000
          1.400000000000e+001 5.000000000000e+000 0.000000000000e+000
          1.400000000000e+001 7.500000000000e+000 0.000000000000e+000
          1.400000000000e+001 1.000000000000e+001 0.000000000000e+000
          1.400000000000e+001 1.250000000000e+001 0.000000000000e+000
          1.400000000000e+001 1.500000000000e+001 0.000000000000e+000
          1.400000000000e+001 1.750000000000e+001 0.000000000000e+000
          1.400000000000e+001 2.000000000000e+001 0.000000000000e+000
          1.600000000000e+001 0.000000000000e+000 0.000000000000e+000
          1.600000000000e+001 2.500000000000e+000 0.000000000000e+000
          1.600000000000e+001 5.000000000000e+000 0.000000000000e+000
          1.600000000000e+001 7.500000000000e+000 0.000000000000e+000
          1.600000000000e+001 1.000000000000e+001 0.000000000000e+000
          1.600000000000e+001 1.250000000000e+001 0.000000000000e+000
          1.600000000000e+001 1.500000000000e+001 0.000000000000e+000
          1.600000000000e+001 1.750000000000e+001 0.000000000000e+000
          1.600000000000e+001 2.000000000000e+001 0.000000000000e+000
          1.800000000000e+001 0.000000000000e+000 0.000000000000e+000
          1.800000000000e+001 2.500000000000e+000 0.000000000000e+000
          1.800000000000e+001 5.000000000000e+000 0.000000000000e+000
          1.800000000000e+001 7.500000000000e+000 0.000000000000e+000
          1.800000000000e+001 1.000000000000e+001 0.000000000000e+000
          1.800000000000e+001 1.250000000000e+001 0.000000000000e+000
          1.800000000000e+001 1.500000000000e+001 0.000000000000e+000
          1.800000000000e+001 1.750000000000e+001 0.000000000000e+000
          1.800000000000e+001 2.000000000000e+001 0.000000000000e+000
          2.000000000000e+001 0.000000000000e+000 0.000000000000e+000
          2.000000000000e+001 2.500000000000e+000 0.000000000000e+000
          2.000000000000e+001 5.000000000000e+000 0.000000000000e+000
          2.000000000000e+001 7.500000000000e+000 0.000000000000e+000
          2.000000000000e+001 1.000000000000e+001 0.000000000000e+000
          2.000000000000e+001 1.250000000000e+001 0.000000000000e+000
          2.000000000000e+001 1.500000000000e+001 0.000000000000e+000
          2.000000000000e+001 1.750000000000e+001 0.000000000000e+000
          2.000000000000e+001 2.000000000000e+001 0.000000000000e+000
          2.200000000000e+001 0.000000000000e+000 0.000000000000e+000
          2.200000000000e+001 2.500000000000e+000 0.000000000000e+000
          2.200000000000e+001 5.000000000000e+000 0.000000000000e+000
          2.200000000000e+001 7.500000000000e+000 0.000000000000e+000
          2.200000000000e+001 1.000000000000e+001 0.000000000000e+000
          2.200000000000e+001 1.250000000000e+001 0.000000000000e+000
          2.200000000000e+001 1.500000000000e+001 0.000000000000e+000
          2.200000000000e+001 1.750000000000e+001 0.000000000000e+000
          2.200000000000e+001 2.000000000000e+001 0.000000000000e+000
          2.400000000000e+001 0.000000000000e+000 0.000000000000e+000
          2.400000000000e+001 2.500000000000e+000 0.000000000000e+000
          2.400000000000e+001 5.000000000000e+000 0.000000000000e+000
          2.400000000000e+001 7.500000000000e+000 0.000000000000e+000
          2.400000000000e+001 1.000000000000e+001 0.000000000000e+000
          2.400000000000e+001 1.250000000000e+001 0.000000000000e+000
          2.400000000000e+001 1.500000000000e+001 0.000000000000e+000
          2.400000000000e+001 1.750000000000e+001 0.000000000000e+000
          2.400000000000e+001 2.000000000000e+001 0.000000000000e+000
          2.600000000000e+001 0.000000000000e+000 0.000000000000e+000
          2.600000000000e+001 2.500000000000e+000 0.000000000000e+000
          2.600000000000e+001 5.000000000000e+000 0.000000000000e+000
          2.600000000000e+001 7.500000000000e+000 0.000000000000e+000
          2.600000000000e+001 1.000000000000e+001 0.000000000000e+000
          2.600000000000e+001 1.250000000000e+001 0.000000000000e+000
          2.600000000000e+001 1.500000000000e+001 0.000000000000e+000
          2.600000000000e+001 1.750000000000e+001 0.000000000000e+000
          2.600000000000e+001 2.000000000000e+001 0.000000000000e+000
          2.800000000000e+001 0.000000000000e+000 0.000000000000e+000
          2.800000000000e+001 2.500000000000e+000 0.000000000000e+000
          2.800000000000e+001 5.000000000000e+000 0.000000000000e+000
          2.800000000000e+001 7.500000000000e+000 0.000000000000e+000
          2.800000000000e+001 1.000000000000e+001 0.000000000000e+000
          2.800000000000e+001 1.250000000000e+001 0.000000000000e+000
          2.800000000000e+001 1.500000000000e+001 0.000000000000e+000
          2.800000000000e+001 1.750000000000e+001 0.000000000000e+000
          2.800000000000e+001 2.000000000000e+001 0.000000000000e+000
          3.000000000000e+001 0.000000000000e+000 0.000000000000e+000
          3.000000000000e+001 2.500000000000e+000 0.000000000000e+000
          3.000000000000e+001 5.000000000000e+000 0.000000000000e+000
          3.000000000000e+001 7.500000000000e+000 0.000000000000e+000
[...]
      <PointData Scalars="CAPILLARY_PRESSURE">
        <DataArray type="Float64" Name="CAPILLARY_PRESSURE" format="ascii">
          1.102898071215e+004 -3.958181655409e+004 -3.958181737639e+004 1.102898005504e+004 -3.958181898004e+004 1.102898082372e+004 -3.958181337018e+004 1.102898113310e+004 -3.958181180631e+004 1.102897970196e+004 -3.958181298257e+004 1.102898070813e+004 -3.958181300073e+004 1.102898137639e+004 -3.958181702900e+004 1.102898005229e+004 -3.958181687573e+004 1.102897966228e+004 -8.853181989486e+004 -8.853181534044e+004 -8.853181241821e+004 -8.853181178227e+004 -8.853180931395e+004 -8.853180345143e+004 -8.853180704272e+004 -8.853181558709e+004 -8.853181010429e+004 -1.358174556372e+005 -1.358174613596e+005 -1.358174518007e+005 -1.358174549575e+005 -1.358174462377e+005 -1.358174388206e+005 -1.358174395262e+005 -1.358174489689e+005 -1.358174478878e+005 -1.814436454318e+005 -1.814436570574e+005 -1.814436502885e+005 -1.814436576093e+005 -1.814436524619e+005 -1.814436356896e+005 -1.814436376686e+005 -1.814436398616e+005 -1.814436428047e+005 -2.254208691149e+005 -2.254208790934e+005 -2.254208811488e+005 -2.254208755032e+005 -2.254208847895e+005 -2.254208618910e+005 -2.254208605275e+005 -2.254208485550e+005 -2.254208436477e+005 -2.677623644498e+005 -2.677623630838e+005 -2.677623522497e+005 -2.677623425929e+005 -2.677623537505e+005 -2.677623603441e+005 -2.677623494056e+005 -2.677623385792e+005 -2.677623420320e+005 -3.084837926719e+005 -3.084837869464e+005 -3.084837739365e+005 -3.084837700881e+005 -3.084837734092e+005 -3.084837809996e+005 -3.084837774363e+005 -3.084837745690e+005 -3.084837632506e+005 -3.476032525207e+005 -3.476032321717e+005 -3.476032290399e+005 -3.476032304106e+005 -3.476032329755e+005 -3.476032387526e+005 -3.476032385207e+005 -3.476032340290e+005 -3.476032215243e+005 -3.851411578929e+005 -3.851411539755e+005 -3.851411424153e+005 -3.851411392855e+005 -3.851411635521e+005 -3.851411520926e+005 -3.851411490914e+005 -3.851411399183e+005 -3.851411371423e+005 -4.211201999339e+005 -4.211201911758e+005 -4.211201970965e+005 -4.211201980518e+005 -4.211201930439e+005 -4.211201931206e+005 -4.211201822599e+005 -4.211201871068e+005 -4.211201812341e+005 -4.555651738539e+005 -4.555651653096e+005 -4.555651618333e+005 -4.555651669266e+005 -4.555651641231e+005 -4.555651597125e+005 -4.555651653320e+005 -4.555651549797e+005 -4.555651402488e+005 -4.885028973742e+005 -4.885029015226e+005 -4.885028949337e+005 -4.885028845105e+005 -4.885028825357e+005 -4.885028810883e+005 -4.885028785721e+005 -4.885028789957e+005 -4.885028729964e+005 -5.199621150469e+005 -5.199621149881e+005 -5.199621049551e+005 -5.199621037539e+005 -5.199621009503e+005 -5.199620900707e+005 -5.199620926720e+005 -5.199620930740e+005 -5.199620896839e+005 -5.499733293943e+005 -5.499733204497e+005 -5.499733257359e+005 -5.499733197986e+005 -5.499733226140e+005 -5.499733211191e+005 -5.499733145720e+005 -5.499733123772e+005 -5.499733119822e+005 -5.785687128176e+005 -5.785687111715e+005 -5.785687227677e+005 -5.785687161007e+005 -5.785687105966e+005 -5.785687163908e+005 -5.785687144116e+005 -5.785687065982e+005 -5.785687018078e+005 -6.057819500395e+005 -6.057819486471e+005 -6.057819674415e+005 -6.057819652611e+005 -6.057819594081e+005 -6.057819540120e+005 -6.057819590359e+005 -6.057819416012e+005 -6.057819408084e+005 -6.316480844892e+005 -6.316480817031e+005 -6.316480973461e+005 -6.316481030033e+005 -6.316481008443e+005 -6.316480948213e+005 -6.316480947529e+005 -6.316480851278e+005 -6.316480753331e+005 -6.562033906605e+005 -6.562033927256e+005 -6.562034020608e+005 -6.562034091211e+005 -6.562034138369e+005 -6.562034027801e+005 -6.562033897622e+005 -6.562033876436e+005 -6.562033939740e+005 -6.794852331633e+005 -6.794852380662e+005 -6.794852410951e+005 -6.794852388564e+005 -6.794852374361e+005 -6.794852318236e+005 -6.794852238736e+005 -6.794852172064e+005 -6.794852312314e+005 -7.015318744701e+005 -7.015318815305e+005 -7.015318790764e+005 -7.015318792995e+005 -7.015318790969e+005 -7.015318662200e+005 -7.015318640237e+005 -7.015318596287e+005 -7.015318632173e+005 -7.223824154286e+005 -7.223824120455e+005 -7.223824140411e+005 -7.223824071972e+005 -7.223824013464e+005 -7.223823850872e+005 -7.223823942466e+005 -7.223823881625e+005 -7.223823892016e+005 -7.420765524772e+005 -7.420765530961e+005 -7.420765447245e+005 -7.420765361295e+005 -7.420765274218e+005 -7.420765215015e+005 -7.420765170293e+005 -7.420765150131e+005 -7.420765145786e+005 -7.606545178696e+005 -7.606544903246e+005 -7.606544926483e+005 -7.606544811465e+005 -7.606544671822e+005 -7.606544655725e+005 -7.606544583518e+005 -7.606544468729e+005 -7.606544556802e+005 -7.781568188538e+005 -7.781568105541e+005 -7.781567961557e+005 -7.781567902873e+005 -7.781567783013e+005 -7.781567744489e+005 -7.781567738525e+005 -7.781567660622e+005 -7.781567752803e+005 -7.946242755943e+005 -7.946242597964e+005 -7.946242531612e+005 -7.946242459502e+005 -7.946242308903e+005 -7.946242268081e+005 -7.946242221483e+005 -7.946242309668e+005 -7.946242347357e+005 -8.100976829644e+005 -8.100976868425e+005 -8.100976831576e+005 -8.100976707023e+005 -8.100976611040e+005 -8.100976527042e+005 -8.100976522558e+005 -8.100976623629e+005 -8.100976683475e+005 -8.246178838159e+005 -8.246178741374e+005 -8.246178653913e+005 -8.246178521058e+005 -8.246178481039e+005 -8.246178517141e+005 -8.246178483001e+005 -8.246178449945e+005 -8.246178413127e+005 -8.382254201290e+005 -8.382254152373e+005 -8.382254002978e+005 -8.382253976202e+005 -8.382253920205e+005 -8.382253929497e+005 -8.382253871710e+005 -8.382253890793e+005 -8.382253850376e+005 -8.509605986246e+005 -8.509605950816e+005 -8.509605895603e+005 -8.509605900666e+005 -8.509605805180e+005 -8.509605875239e+005 -8.509605786566e+005 -8.509605765887e+005 -8.509605778038e+005 -8.628632968257e+005 -8.628633118234e+005 -8.628632996924e+005 -8.628633008932e+005 -8.628633029369e+005 -8.628632973777e+005 -8.628632934382e+005 -8.628632892561e+005 -8.628632939433e+005 -8.739728770312e+005 -8.739728877961e+005 -8.739728915218e+005 -8.739728924875e+005 -8.739729026207e+005 -8.739728871982e+005 -8.739728835005e+005 -8.739728741833e+005 -8.739728772333e+005 -8.843280573485e+005 -8.843280725590e+005 -8.843280648500e+005 -8.843280766620e+005 -8.843280814977e+005 -8.843280843347e+005 -8.843280736375e+005 -8.843280667344e+005 -8.843280587833e+005 -8.939668528512e+005 -8.939668636760e+005 -8.939668667188e+005 -8.939668713560e+005 -8.939668738960e+005 -8.939668790652e+005 -8.939668636438e+005 -8.939668487160e+005 -8.939668519660e+005 -9.029264636950e+005 -9.029264707021e+005 -9.029264742294e+005 -9.029264821548e+005 -9.029264875448e+005 -9.029264696523e+005 -9.029264624151e+005 -9.029264609245e+005 -9.029264487624e+005 -9.112432255555e+005 -9.112432298346e+005 -9.112432178413e+005 -9.112432324725e+005 -9.112432335270e+005 -9.112432253521e+005 -9.112432071791e+005 -9.112432045330e+005 -9.112432118717e+005 -9.189525256938e+005 -9.189525103284e+005 -9.189525152809e+005 -9.189525180693e+005 -9.189525217806e+005 -9.189525022382e+005 -9.189525038738e+005 -9.189524912710e+005 -9.189524951917e+005 -9.260887178410e+005 -9.260887231096e+005 -9.260887263977e+005 -9.260887332736e+005 -9.260887283926e+005 -9.260887137749e+005 -9.260887117765e+005 -9.260887072848e+005 -9.260886994438e+005 -9.326851748990e+005 -9.326851807899e+005 -9.326851828788e+005 -9.326851868546e+005 -9.326851823424e+005 -9.326851672079e+005 -9.326851617990e+005 -9.326851586446e+005 -9.326851549216e+005 -9.387741083754e+005 -9.387741019971e+005 -9.387741114613e+005 -9.387741092196e+005 -9.387741010991e+005 -9.387740919947e+005 -9.387740766730e+005 -9.387740832407e+005 -9.387740772733e+005 -9.443865827848e+005 -9.443865757957e+005 -9.443865845030e+005 -9.443865819388e+005 -9.443865741995e+005 -9.443865642042e+005 -9.443865575358e+005 -9.443865480398e+005 -9.443865512934e+005 -9.495525252576e+005 -9.495525264360e+005 -9.495525311102e+005 -9.495525282398e+005 -9.495525245516e+005 -9.495525075069e+005 -9.495525002990e+005 -9.495525016684e+005 -9.495524923962e+005 -9.543006710217e+005 -9.543006794246e+005 -9.543006732873e+005 -9.543006685392e+005 -9.543006663386e+005 -9.543006551392e+005 -9.543006441860e+005 -9.543006400526e+005 -9.543006377636e+005 -9.586585502014e+005 -9.586585347868e+005 -9.586585381900e+005 -9.586585286496e+005 -9.586585282150e+005 -9.586585211254e+005 -9.586585222564e+005 -9.586585012185e+005 -9.586585078113e+005 -9.626524422513e+005 -9.626524470388e+005 -9.626524416039e+005 -9.626524325643e+005 -9.626524304058e+005 -9.626524301562e+005 -9.626524190174e+005 -9.626524132354e+005 -9.626524097052e+005 -9.663074846357e+005 -9.663074888491e+005 -9.663074919991e+005 -9.663074772914e+005 -9.663074693577e+005 -9.663074699354e+005 -9.663074624618e+005 -9.663074586443e+005 -9.663074501577e+005 -9.696475624717e+005 -9.696475648117e+005 -9.696475614225e+005 -9.696475558173e+005 -9.696475482040e+005 -9.696475391124e+005 -9.696475333494e+005 -9.696475304926e+005 -9.696475323439e+005 -9.726953666323e+005 -9.726953604793e+005 -9.726953574169e+005 -9.726953489494e+005 -9.726953430349e+005 -9.726953324989e+005 -9.726953289745e+005 -9.726953232441e+005 -9.726953208969e+005 -9.754723805014e+005 -9.754723774310e+005 -9.754723707829e+005 -9.754723643841e+005 -9.754723532846e+005 -9.754723463913e+005 -9.754723448983e+005 -9.754723383922e+005 -9.754723350309e+005 -9.779989484274e+005 -9.779989464595e+005 -9.779989404160e+005 -9.779989316381e+005 -9.779989240401e+005 -9.779989186202e+005 -9.779989116283e+005 -9.779989087147e+005 -9.779989030686e+005 -9.802942600760e+005 -9.802942553141e+005 -9.802942526575e+005 -9.802942470962e+005 -9.802942406693e+005 -9.802942307121e+005 -9.802942239510e+005 -9.802942192752e+005 -9.802942196288e+005 -9.823763877556e+005 -9.823763855376e+005 -9.823763824588e+005 -9.823763777564e+005 -9.823763705924e+005 -9.823763602079e+005 -9.823763558729e+005 -9.823763500660e+005 -9.823763489968e+005 -9.842623153726e+005 -9.842623145227e+005 -9.842623120308e+005 -9.842623074940e+005 -9.842623022327e+005 -9.842622953141e+005 -9.842622914728e+005 -9.842622837254e+005 -9.842622875894e+005 -9.859679735564e+005 -9.859679690755e+005 -9.859679685259e+005 -9.859679669745e+005 -9.859679654243e+005 -9.859679578924e+005 -9.859679539947e+005 -9.859679511869e+005 -9.859679500817e+005 -9.875082669989e+005 -9.875082744551e+005 -9.875082710677e+005 -9.875082679360e+005 -9.875082672637e+005 -9.875082655485e+005 -9.875082596831e+005 -9.875082553085e+005 -9.875082534207e+005 -9.888971429434e+005 -9.888971454127e+005 -9.888971444850e+005 -9.888971389243e+005 -9.888971365909e+005 -9.888971348827e+005 -9.888971311212e+005 -9.888971315134e+005 -9.888971283200e+005 -9.901475669448e+005 -9.901475662230e+005 -9.901475646233e+005 -9.901475619019e+005 -9.901475603249e+005 -9.901475594548e+005 -9.901475555307e+005 -9.901475592918e+005 -9.901475558422e+005 -9.912716175676e+005 -9.912716182637e+005 -9.912716163423e+005 -9.912716126137e+005 -9.912716115980e+005 -9.912716122692e+005 -9.912716088426e+005 -9.912716095198e+005 -9.912716073947e+005 -9.922805100198e+005 -9.922805103848e+005 -9.922805084081e+005 -9.922805078153e+005 -9.922805056777e+005 -9.922805065368e+005 -9.922805050270e+005 -9.922805039475e+005 -9.922805060314e+005 -9.931846341203e+005 -9.931846354793e+005 -9.931846368983e+005 -9.931846366412e+005 -9.931846385351e+005 -9.931846345291e+005 -9.931846335793e+005 -9.931846346227e+005 -9.931846363630e+005 -9.939936078158e+005 -9.939936085326e+005 -9.939936122770e+005 -9.939936123819e+005 -9.939936110594e+005 -9.939936073673e+005 -9.939936087656e+005 -9.939936099957e+005 -9.939936111261e+005 -9.947163006229e+005 -9.947163040112e+005 -9.947163042259e+005 -9.947163036087e+005 -9.947163005960e+005 -9.947163014026e+005 -9.947163033545e+005 -9.947163006802e+005 -9.947163015326e+005 -9.953608813581e+005 -9.953608816917e+005 -9.953608815683e+005 -9.953608810474e+005 -9.953608801147e+005 -9.953608783530e+005 -9.953608808428e+005 -9.953608791732e+005 -9.953608788695e+005 -9.959348617795e+005 -9.959348587600e+005 -9.959348604362e+005 -9.959348594266e+005 -9.959348565902e+005 -9.959348578218e+005 -9.959348594196e+005 -9.959348587997e+005 -9.959348586442e+005 -9.964451311989e+005 -9.964451325108e+005 -9.964451325706e+005 -9.964451332621e+005 -9.964451296749e+005 -9.964451296520e+005 -9.964451329149e+005 -9.964451322953e+005 -9.964451307713e+005 -9.968980159366e+005 -9.968980170113e+005 -9.968980163102e+005 -9.968980150521e+005 -9.968980134854e+005 -9.968980144388e+005 -9.968980172934e+005 -9.968980169015e+005 -9.968980144122e+005 -9.972992801595e+005 -9.972992811338e+005 -9.972992809256e+005 -9.972992815094e+005 -9.972992785818e+005 -9.972992799882e+005 -9.972992820881e+005 -9.972992810928e+005 -9.972992794217e+005 -9.976541945306e+005 -9.976541955253e+005 -9.976541968161e+005 -9.976541941716e+005 -9.976541943935e+005 -9.976541954879e+005 -9.976541958030e+005 -9.976541967920e+005 -9.976541933750e+005 -9.979675556760e+005 -9.979675565730e+005 -9.979675561353e+005 -9.979675541513e+005 -9.979675561627e+005 -9.979675557018e+005 -9.979675548341e+005 -9.979675550923e+005 -9.979675544792e+005 -9.982437267157e+005 -9.982437259440e+005 -9.982437255124e+005 -9.982437251429e+005 -9.982437222472e+005 -9.982437223609e+005 -9.982437248728e+005 -9.982437235461e+005 -9.982437233131e+005 -9.984866615709e+005 -9.984866590882e+005 -9.984866588564e+005 -9.984866570480e+005 -9.984866553345e+005 -9.984866557069e+005 -9.984866581181e+005 -9.984866569044e+005 -9.984866578625e+005 -9.986999416218e+005 -9.986999408632e+005 -9.986999408497e+005 -9.986999400192e+005 -9.986999392403e+005 -9.986999391417e+005 -9.986999403581e+005 -9.986999407363e+005 -9.986999404883e+005 -9.988868096072e+005 -9.988868117940e+005 -9.988868122933e+005 -9.988868130036e+005 -9.988868115840e+005 -9.988868123410e+005 -9.988868136387e+005 -9.988868123456e+005 -9.988868115556e+005 -9.990501966294e+005 -9.990501945288e+005 -9.990501971017e+005 -9.990501972506e+005 -9.990501959561e+005 -9.990501983103e+005 -9.990501968981e+005 -9.990501971282e+005 -9.990501965888e+005 -9.991927269583e+005 -9.991927255946e+005 -9.991927254182e+005 -9.991927251659e+005 -9.991927248006e+005 -9.991927266407e+005 -9.991927262979e+005 -9.991927268135e+005 -9.991927249070e+005 -9.993167628685e+005 -9.993167661973e+005 -9.993167666497e+005 -9.993167664383e+005 -9.993167658127e+005 -9.993167674170e+005 -9.993167671080e+005 -9.993167672657e+005 -9.993167678581e+005 -9.994244410198e+005 -9.994244444396e+005 -9.994244435140e+005 -9.994244435453e+005 -9.994244465269e+005 -9.994244445852e+005 -9.994244459445e+005 -9.994244459732e+005 -9.994244462659e+005 -9.995176625506e+005 -9.995176640942e+005 -9.995176645290e+005 -9.995176634827e+005 -9.995176648371e+005 -9.995176652749e+005 -9.995176664182e+005 -9.995176649663e+005 -9.995176652019e+005 -9.995981296392e+005 -9.995981285074e+005 -9.995981287003e+005 -9.995981300043e+005 -9.995981286337e+005 -9.995981294571e+005 -9.995981295618e+005 -9.995981291171e+005 -9.995981286859e+005 -9.996673584951e+005 -9.996673596539e+005 -9.996673580627e+005 -9.996673586703e+005 -9.996673584895e+005 -9.996673592510e+005 -9.996673593327e+005 -9.996673582500e+005 -9.996673594807e+005 -9.997267112318e+005 -9.997267083055e+005 -9.997267076373e+005 -9.997267091109e+005 -9.997267082309e+005 -9.997267074773e+005 -9.997267080924e+005 -9.997267075558e+005 -9.997267089384e+005 -9.997773874126e+005 -9.997773843889e+005 -9.997773829117e+005 -9.997773842630e+005 -9.997773844008e+005 -9.997773847150e+005 -9.997773845378e+005 -9.997773850166e+005 -9.997773829389e+005 -9.998204608614e+005 -9.998204598093e+005 -9.998204584897e+005 -9.998204593507e+005 -9.998204599309e+005 -9.998204597576e+005 -9.998204599294e+005 -9.998204586837e+005 -9.998204586730e+005 -9.998568876609e+005 -9.998568857330e+005 -9.998568845460e+005 -9.998568848918e+005 -9.998568844181e+005 -9.998568829365e+005 -9.998568847003e+005 -9.998568841361e+005 -9.998568836061e+005 -9.998875075064e+005 -9.998875046427e+005 -9.998875039555e+005 -9.998875021149e+005 -9.998875022104e+005 -9.998875019449e+005 -9.998875022096e+005 -9.998875008871e+005 -9.998875001659e+005 -9.999130632484e+005 -9.999130623141e+005 -9.999130612809e+005 -9.999130599116e+005 -9.999130593119e+005 -9.999130584284e+005 -9.999130585359e+005 -9.999130571440e+005 -9.999130576667e+005 -9.999342179892e+005 -9.999342178382e+005 -9.999342156682e+005 -9.999342169641e+005 -9.999342146629e+005 -9.999342142316e+005 -9.999342139520e+005 -9.999342128103e+005 -9.999342117161e+005 -9.999515539781e+005 -9.999515529872e+005 -9.999515539216e+005 -9.999515516446e+005 -9.999515513204e+005 -9.999515501681e+005 -9.999515499410e+005 -9.999515497469e+005 -9.999515486734e+005 -9.999655835569e+005 -9.999655851350e+005 -9.999655844980e+005 -9.999655843186e+005 -9.999655828872e+005 -9.999655824577e+005 -9.999655816019e+005 -9.999655802072e+005 -9.999655795326e+005 -9.999767646180e+005 -9.999767664974e+005 -9.999767672283e+005 -9.999767657635e+005 -9.999767641534e+005 -9.999767642564e+005 -9.999767626852e+005 -9.999767613358e+005 -9.999767611786e+005 -9.999854960040e+005 -9.999854983408e+005 -9.999854981943e+005 -9.999854981607e+005 -9.999854971891e+005 -9.999854954152e+005 -9.999854942251e+005 -9.999854939300e+005 -9.999854932543e+005 -9.999921360270e+005 -9.999921340852e+005 -9.999921349477e+005 -9.999921348826e+005 -9.999921345680e+005 -9.999921320083e+005 -9.999921309853e+005 -9.999921317844e+005 -9.999921314548e+005 -9.999969920483e+005 -9.999969914824e+005 -9.999969912458e+005 -9.999969911496e+005 -9.999969901811e+005 -9.999969879445e+005 -9.999969885899e+005 -9.999969879586e+005 -9.999969882898e+005 -1.000000346913e+006 -1.000000346135e+006 -1.000000346087e+006 -1.000000344658e+006 -1.000000344506e+006 -1.000000343462e+006 -1.000000343184e+006 -1.000000342594e+006 -1.000000343303e+006 -1.000002447776e+006 -1.000002446875e+006 -1.000002447246e+006 -1.000002446879e+006 -1.000002445744e+006 -1.000002445625e+006 -1.000002445005e+006 -1.000002444935e+006 -1.000002443742e+006 -1.000003517632e+006 -1.000003518303e+006 -1.000003519079e+006 -1.000003518618e+006 -1.000003517882e+006 -1.000003518183e+006 -1.000003517533e+006 -1.000003517567e+006 -1.000003517294e+006 -1.000003762262e+006 -1.000003763033e+006 -1.000003763577e+006 -1.000003762992e+006 -1.000003762946e+006 -1.000003763168e+006 -1.000003762353e+006 -1.000003762884e+006 -1.000003762954e+006 -1.000003366207e+006 -1.000003366321e+006 -1.000003366664e+006 -1.000003366790e+006 -1.000003365647e+006 -1.000003365486e+006 -1.000003365791e+006 -1.000003366057e+006 -1.000003365900e+006 -1.000002498795e+006 -1.000002499617e+006 -1.000002500249e+006 -1.000002500177e+006 -1.000002499872e+006 -1.000002499193e+006 -1.000002499194e+006 -1.000002499364e+006 -1.000002499476e+006 -1.000001325477e+006 -1.000001325909e+006 -1.000001326161e+006 -1.000001326011e+006 -1.000001326104e+006 -1.000001325645e+006 -1.000001325644e+006 -1.000001325808e+006 -1.000001325650e+006 -1.000000000000e+006 -1.000000000000e+006 -1.000000000000e+006 -1.000000000000e+006 -1.000000000000e+006 -1.000000000000e+006 -1.000000000000e+006 -1.000000000000e+006 -1.000000000000e+006 
        </DataArray>
        <DataArray type="Float64" Name="NONWET_PRESSURE" format="ascii">