<?xml version="1.0"?>
<VTKFile type="UnstructuredGrid" version="0.1" byte_order="LittleEndian">
  <UnstructuredGrid>
    <Piece NumberOfPoints="909" NumberOfCells="800">
      <Points>
        <DataArray type="Float64" NumberOfComponents="3" format="ascii">
          0.000000000000e+000 0.000000000000e+000 0.000000000000e+000
          2.000000000000e+000 0.000000000000e+000 0.000000000000e+000
          2.000000000000e+000 2.500000000000e+000 0.000000000000e+000
          0.000000000000e+000 2.500000000000e+000 0.000000000000e+000
          2.000000000000e+000 5.000000000000e+000 0.000000000000e+000
          0.000000000000e+000 5.000000000000e+000 0.000000000000e+000
          2.000000000000e+000 7.500000000000e+000 0.000000000000e+000
          0.000000000000e+000 7.500000000000e+000 0.000000000000e+000
          2.000000000000e+000 1.000000000000e+001 0.000000000000e+000
          0.000000000000e+000 1.000000000000e+001 0.000000000000e+000
          2.000000000000e+000 1.250000000000e+001 0.000000000000e+000
          0.000000000000e+000 1.250000000000e+001 0.000000000000e+000
          2.000000000000e+000 1.500000000000e+001 0.000000000000e+000
          0.000000000000e+000 1.500000000000e+001 0.000000000000e+000
          2.000000000000e+000 1.750000000000e+001 0.000000000000e+000
          0.000000000000e+000 1.750000000000e+001 0.000000000000e+000
          2.000000000000e+000 2.000000000000e+001 0.000000000000e+000
          0.000000000000e+000 2.000000000000e+001 0.000000000000e+000
          4.000000000000e+000 0.000000000000e+000 0.000000000000e+000
          4.000000000000e+000 2.500000000000e+000 0.000000000000e+000
          4.000000000000e+000 5.000000000000e+000 0.000000000000e+000
          4.000000000000e+000 7.500000000000e+000 0.000000000000e+000
          4.000000000000e+000 1.000000000000e+001 0.000000000000e+000
          4.000000000000e+000 1.250000000000e+001 0.000000000000e+000
          4.000000000000e+000 1.500000000000e+001 0.000000000000e+000
          4.000000000000e+000 1.750000000000e+001 0.000000000000e+000
          4.000000000000e+000 2.000000000000e+001 0.000000000000e+000
          6.000000000000e+000 0.000000000000e+000 0.000000000000e+000
          6.000000000000e+000 2.500000000000e+000 0.000000000000e+000
          6.000000000000e+000 5.000000000000e+000 0.000000000000e+000
          6.000000000000e+000 7.500000000000e+000 0.000000000000e+000
          6.000000000000e+000 1.000000000000e+001 0.000000000000e+000
          6.000000000000e+000 1.250000000000e+001 0.000000000000e+000
          6.000000000000e+000 1.500000000000e+001 0.000000000000e+000
          6.000000000000e+000 1.750000000000e+001 0.000000000000e+000
          6.000000000000e+000 2.000000000000e+001 0.000000000000e+000
          8.000000000000e+000 0.000000000000e+000 0.000000000000e+000
          8.000000000000e+000 2.500000000000e+000 0.000000000000e+000
          8.000000000000e+000 5.000000000000e+000 0.000000000000e+000
          8.000000000000e+000 7.500000000000e+000 0.000000000000e+000
          8.000000000000e+000 1.000000000000e+001 0.000000000000e+000
          8.000000000000e+000 1.250000000000e+001 0.000000000000e+000
          8.000000000000e+000 1.500000000000e+001 0.000000000000e+000
          8.000000000000e+000 1.750000000000e+001 0.000000000000e+000
          8.000000000000e+000 2.000000000000e+001 0.000000000000e+000
          1.000000000000e+001 0.000000000000e+000 0.000000000000e+000
          1.000000000000e+001 2.500000000000e+000 0.000000000000e+000
          1.000000000000e+001 5.000000000000e+000 0.000000000000e+000
          1.000000000000e+001 7.500000000000e+000 0.000000000000e+000
          1.000000000000e+001 1.000000000000e+001 0.000000000000e+000
          1.000000000000e+001 1.250000000000e+001 0.000000000000e+000
          1.000000000000e+001 1.500000000000e+001 0.000000000000e+000
          1.000000000000e+001 1.750000000000e+001 0.000000000000e+000
          1.000000000000e+001 2.000000000000e+001 0.000000000000e+000
          1.200000000000e+001 0.000000000000e+000 0.000000000000e+000
          1.200000000000e+001 2.500000000000e+000 0.000000000000e+000
          1.200000000000e+001 5.000000000000e+000 0.000000000000e+000
          1.200000000000e+001 7.500000000000e+000 0.000000000000e+000
          1.200000000000e+001 1.000000000000e+001 0.000000000000e+000
          1.200000000000e+001 1.250000000000e+001 0.000000000000e+000
          1.200000000000e+001 1.500000000000e+001 0.000000000000e+000
          1.200000000000e+001 1.750000000000e+001 0.000000000000e+000
          1.200000000000e+001 2.000000000000e+001 0.000000000000e+000
          1.400000000000e+001 0.000000000000e+000 0.000000000000e+000
          1.400000000000e+001 2.500000000000e+000 0.000000000000e+000
          1.400000000000e+001 5.000000000000e+000 0.000000000000e+000
          1.400000000000e+001 7.500000000000e+000 0.000000000000e+000
          1.400000000000e+001 1.000000000000e+001 0.000000000000e+000
          1.400000000000e+001 1.250000000000e+001 0.000000000000e+000
          1.400000000000e+001 1.500000000000e+001 0.000000000000e+000
          1.400000000000e+001 1.750000000000e+001 0.000000000000e+000
          1.400000000000e+001 2.000000000000e+001 0.000000000000e+000
          1.600000000000e+001 0.000000000000e+000 0.000000000000e+000
          1.600000000000e+001 2.500000000000e+000 0.000000000000e+000
          1.600000000000e+001 5.000000000000e+000 0.000000000000e+000
          1.600000000000e+001 7.500000000000e+000 0.000000000000e+000
          1.600000000000e+001 1.000000000000e+001 0.000000000000e+000
          1.600000000000e+001 1.250000000000e+001 0.000000000000e+000
          1.600000000000e+001 1.500000000000e+001 0.000000000000e+000
          1.600000000000e+001 1.750000000000e+001 0.000000000000e+000
          1.600000000000e+001 2.000000000000e+001 0.000000000000e+000
          1.800000000000e+001 0.000000000000e+000 0.000000000000e+000
          1.800000000000e+001 2.500000000000e+000 0.000000000000e+000
          1.800000000000e+001 5.000000000000e+000 0.000000000000e+000
          1.800000000000e+001 7.500000000000e+000 0.000000000000e+000
          1.800000000000e+001 1.000000000000e+001 0.000000000000e+000
          1.800000000000e+001 1.250000000000e+001 0.000000000000e+000
          1.800000000000e+001 1.500000000000e+001 0.000000000000e+000
          1.800000000000e+001 1.750000000000e+001 0.000000000000e+000
          1.800000000000e+001 2.000000000000e+001 0.000000000000e+000
          2.000000000000e+001 0.000000000000e+000 0.000000000000e+000
          2.000000000000e+001 2.500000000000e+000 0.000000000000e+000
          2.000000000000e+001 5.000000000000e+000 0.000000000000e+000
          2.000000000000e+001 7.500000000000e+000 0.000000000000e+000
          2.000000000000e+001 1.000000000000e+001 0.000000000000e+000
          2.000000000000e+001 1.250000000000e+001 0.000000000000e+000
          2.000000000000e+001 1.500000000000e+001 0.000000000000e+000
          2.000000000000e+001 1.750000000000e+001 0.000000000000e+000
          2.000000000000e+001 2.000000000000e+001 0.000000000000e+000
          2.200000000000e+001 0.000000000000e+000 0.000000000000e+000
          2.200000000000e+001 2.500000000000e+000 0.000000000000e+000
          2.200000000000e+001 5.000000000000e+000 0.000000000000e+000
          2.200000000000e+001 7.500000000000e+000 0.000000000000e+000
          2.200000000000e+001 1.000000000000e+001 0.000000000000e+000
          2.200000000000e+001 1.250000000000e+001 0.000000000000e+000
          2.200000000000e+001 1.500000000000e+001 0.000000000000e+000
          2.200000000000e+001 1.750000000000e+001 0.000000000000e+000
          2.200000000000e+001 2.000000000000e+001 0.000000000000e+000
          2.400000000000e+001 0.000000000000e+000 0.000000000000e+000
          2.400000000000e+001 2.500000000000e+000 0.000000000000e+000
          2.400000000000e+001 5.000000000000e+000 0.000000000000e+000
          2.400000000000e+001 7.500000000000e+000 0.000000000000e+000
          2.400000000000e+001 1.000000000000e+001 0.000000000000e+000
          2.400000000000e+001 1.250000000000e+001 0.000000000000e+000
          2.400000000000e+001 1.500000000000e+001 0.000000000000e+000
          2.400000000000e+001 1.750000000000e+001 0.000000000000e+000
          2.400000000000e+001 2.000000000000e+001 0.000000000000e+000
          2.600000000000e+001 0.000000000000e+000 0.000000000000e+000
          2.600000000000e+001 2.500000000000e+000 0.000000000000e+000
          2.600000000000e+001 5.000000000000e+000 0.000000000000e+000
          2.600000000000e+001 7.500000000000e+000 0.000000000000e+000
          2.600000000000e+001 1.000000000000e+001 0.000000000000e+000
          2.600000000000e+001 1.250000000000e+001 0.000000000000e+000
          2.600000000000e+001 1.500000000000e+001 0.000000000000e+000
          2.600000000000e+001 1.750000000000e+001 0.000000000000e+000
          2.600000000000e+001 2.000000000000e+001 0.000000000000e+000
          2.800000000000e+001 0.000000000000e+000 0.000000000000e+000
          2.800000000000e+001 2.500000000000e+000 0.000000000000e+000
          2.800000000000e+001 5.000000000000e+000 0.000000000000e+000
          2.800000000000e+001 7.500000000000e+000 0.000000000000e+000
          2.800000000000e+001 1.000000000000e+001 0.000000000000e+000
          2.800000000000e+001 1.250000000000e+001 0.000000000000e+000
          2.800000000000e+001 1.500000000000e+001 0.000000000000e+000
          2.800000000000e+001 1.750000000000e+001 0.000000000000e+000
          2.800000000000e+001 2.000000000000e+001 0.000000000000e+000
          3.000000000000e+001 0.000000000000e+000 0.000000000000e+000
          3.000000000000e+001 2.500000000000e+000 0.000000000000e+000
          3.000000000000e+001 5.000000000000e+000 0.000000000000e+000
          3.000000000000e+001 7.500000000000e+000 0.000000000000e+000
[...]
      <PointData Scalars="CAPILLARY_PRESSURE">
        <DataArray type="Float64" Name="CAPILLARY_PRESSURE" format="ascii">
          2.902419835509e+005 2.875214711536e+005 2.875214711536e+005 2.902419835509e+005 2.875214711536e+005 2.902419835509e+005 2.875214711536e+005 2.902419835509e+005 2.875214711536e+005 2.902419835509e+005 2.875214711536e+005 2.902419835509e+005 2.875214711536e+005 2.902419835509e+005 2.875214711536e+005 2.902419835509e+005 2.875214711536e+005 2.902419835509e+005 2.848062442804e+005 2.848062442804e+005 2.848062442804e+005 2.848062442804e+005 2.848062442804e+005 2.848062442804e+005 2.848062442804e+005 2.848062442804e+005 2.848062442804e+005 2.820956453358e+005 2.820956453358e+005 2.820956453358e+005 2.820956453358e+005 2.820956453358e+005 2.820956453358e+005 2.820956453358e+005 2.820956453358e+005 2.820956453358e+005 2.793889299769e+005 2.793889299769e+005 2.793889299769e+005 2.793889299769e+005 2.793889299769e+005 2.793889299769e+005 2.793889299769e+005 2.793889299769e+005 2.793889299769e+005 2.766853270853e+005 2.766853270853e+005 2.766853270853e+005 2.766853270853e+005 2.766853270853e+005 2.766853270853e+005 2.766853270853e+005 2.766853270853e+005 2.766853270853e+005 2.739840303158e+005 2.739840303158e+005 2.739840303158e+005 2.739840303158e+005 2.739840303158e+005 2.739840303158e+005 2.739840303158e+005 2.739840303158e+005 2.739840303158e+005 2.712841915927e+005 2.712841915927e+005 2.712841915927e+005 2.712841915927e+005 2.712841915927e+005 2.712841915927e+005 2.712841915927e+005 2.712841915927e+005 2.712841915927e+005 2.685849186129e+005 2.685849186129e+005 2.685849186129e+005 2.685849186129e+005 2.685849186129e+005 2.685849186129e+005 2.685849186129e+005 2.685849186129e+005 2.685849186129e+005 2.658852722270e+005 2.658852722270e+005 2.658852722270e+005 2.658852722270e+005 2.658852722270e+005 2.658852722270e+005 2.658852722270e+005 2.658852722270e+005 2.658852722270e+005 2.631842635467e+005 2.631842635467e+005 2.631842635467e+005 2.631842635467e+005 2.631842635467e+005 2.631842635467e+005 2.631842635467e+005 2.631842635467e+005 2.631842635467e+005 2.604808502157e+005 2.604808502157e+005 2.604808502157e+005 2.604808502157e+005 2.604808502157e+005 2.604808502157e+005 2.604808502157e+005 2.604808502157e+005 2.604808502157e+005 2.577739323572e+005 2.577739323572e+005 2.577739323572e+005 2.577739323572e+005 2.577739323572e+005 2.577739323572e+005 2.577739323572e+005 2.577739323572e+005 2.577739323572e+005 2.550623481929e+005 2.550623481929e+005 2.550623481929e+005 2.550623481929e+005 2.550623481929e+005 2.550623481929e+005 2.550623481929e+005 2.550623481929e+005 2.550623481929e+005 2.523448691604e+005 2.523448691604e+005 2.523448691604e+005 2.523448691604e+005 2.523448691604e+005 2.523448691604e+005 2.523448691604e+005 2.523448691604e+005 2.523448691604e+005 2.496201944625e+005 2.496201944625e+005 2.496201944625e+005 2.496201944625e+005 2.496201944625e+005 2.496201944625e+005 2.496201944625e+005 2.496201944625e+005 2.496201944625e+005 2.468869449808e+005 2.468869449808e+005 2.468869449808e+005 2.468869449808e+005 2.468869449808e+005 2.468869449808e+005 2.468869449808e+005 2.468869449808e+005 2.468869449808e+005 2.441436564689e+005 2.441436564689e+005 2.441436564689e+005 2.441436564689e+005 2.441436564689e+005 2.441436564689e+005 2.441436564689e+005 2.441436564689e+005 2.441436564689e+005 2.413887719346e+005 2.413887719346e+005 2.413887719346e+005 2.413887719346e+005 2.413887719346e+005 2.413887719346e+005 2.413887719346e+005 2.413887719346e+005 2.413887719346e+005 2.386206331076e+005 2.386206331076e+005 2.386206331076e+005 2.386206331076e+005 2.386206331076e+005 2.386206331076e+005 2.386206331076e+005 2.386206331076e+005 2.386206331076e+005 2.358374708699e+005 2.358374708699e+005 2.358374708699e+005 2.358374708699e+005 2.358374708699e+005 2.358374708699e+005 2.358374708699e+005 2.358374708699e+005 2.358374708699e+005 2.330373945023e+005 2.330373945023e+005 2.330373945023e+005 2.330373945023e+005 2.330373945023e+005 2.330373945023e+005 2.330373945023e+005 2.330373945023e+005 2.330373945023e+005 2.302183795750e+005 2.302183795750e+005 2.302183795750e+005 2.302183795750e+005 2.302183795750e+005 2.302183795750e+005 2.302183795750e+005 2.302183795750e+005 2.302183795750e+005 2.273782542753e+005 2.273782542753e+005 2.273782542753e+005 2.273782542753e+005 2.273782542753e+005 2.273782542753e+005 2.273782542753e+005 2.273782542753e+005 2.273782542753e+005 2.245146839282e+005 2.245146839282e+005 2.245146839282e+005 2.245146839282e+005 2.245146839282e+005 2.245146839282e+005 2.245146839282e+005 2.245146839282e+005 2.245146839282e+005 2.216251534165e+005 2.216251534165e+005 2.216251534165e+005 2.216251534165e+005 2.216251534165e+005 2.216251534165e+005 2.216251534165e+005 2.216251534165e+005 2.216251534165e+005 2.187069471508e+005 2.187069471508e+005 2.187069471508e+005 2.187069471508e+005 2.187069471508e+005 2.187069471508e+005 2.187069471508e+005 2.187069471508e+005 2.187069471508e+005 2.157571261659e+005 2.157571261659e+005 2.157571261659e+005 2.157571261659e+005 2.157571261659e+005 2.157571261659e+005 2.157571261659e+005 2.157571261659e+005 2.157571261659e+005 2.127725018343e+005 2.127725018343e+005 2.127725018343e+005 2.127725018343e+005 2.127725018343e+005 2.127725018343e+005 2.127725018343e+005 2.127725018343e+005 2.127725018343e+005 2.097496055755e+005 2.097496055755e+005 2.097496055755e+005 2.097496055755e+005 2.097496055755e+005 2.097496055755e+005 2.097496055755e+005 2.097496055755e+005 2.097496055755e+005 2.066846537998e+005 2.066846537998e+005 2.066846537998e+005 2.066846537998e+005 2.066846537998e+005 2.066846537998e+005 2.066846537998e+005 2.066846537998e+005 2.066846537998e+005 2.035735071489e+005 2.035735071489e+005 2.035735071489e+005 2.035735071489e+005 2.035735071489e+005 2.035735071489e+005 2.035735071489e+005 2.035735071489e+005 2.035735071489e+005 2.004116228656e+005 2.004116228656e+005 2.004116228656e+005 2.004116228656e+005 2.004116228656e+005 2.004116228656e+005 2.004116228656e+005 2.004116228656e+005 2.004116228656e+005 1.971939988279e+005 1.971939988280e+005 1.971939988279e+005 1.971939988279e+005 1.971939988279e+005 1.971939988279e+005 1.971939988279e+005 1.971939988279e+005 1.971939988279e+005 1.939151073981e+005 1.939151073981e+005 1.939151073981e+005 1.939151073981e+005 1.939151073981e+005 1.939151073981e+005 1.939151073981e+005 1.939151073981e+005 1.939151073981e+005 1.905688167264e+005 1.905688167264e+005 1.905688167264e+005 1.905688167264e+005 1.905688167264e+005 1.905688167264e+005 1.905688167264e+005 1.905688167264e+005 1.905688167264e+005 1.871482964797e+005 1.871482964797e+005 1.871482964797e+005 1.871482964797e+005 1.871482964797e+005 1.871482964797e+005 1.871482964797e+005 1.871482964797e+005 1.871482964797e+005 1.836459040685e+005 1.836459040685e+005 1.836459040685e+005 1.836459040685e+005 1.836459040685e+005 1.836459040685e+005 1.836459040685e+005 1.836459040685e+005 1.836459040685e+005 1.800530462507e+005 1.800530462507e+005 1.800530462507e+005 1.800530462507e+005 1.800530462507e+005 1.800530462507e+005 1.800530462507e+005 1.800530462507e+005 1.800530462507e+005 1.763600093656e+005 1.763600093656e+005 1.763600093656e+005 1.763600093656e+005 1.763600093656e+005 1.763600093655e+005 1.763600093655e+005 1.763600093655e+005 1.763600093655e+005 1.725557492277e+005 1.725557492277e+005 1.725557492277e+005 1.725557492277e+005 1.725557492277e+005 1.725557492277e+005 1.725557492277e+005 1.725557492277e+005 1.725557492277e+005 1.686276286062e+005 1.686276286062e+005 1.686276286062e+005 1.686276286062e+005 1.686276286062e+005 1.686276286062e+005 1.686276286062e+005 1.686276286062e+005 1.686276286062e+005 1.645610857871e+005 1.645610857871e+005 1.645610857871e+005 1.645610857871e+005 1.645610857871e+005 1.645610857871e+005 1.645610857871e+005 1.645610857871e+005 1.645610857871e+005 1.603392113380e+005 1.603392113380e+005 1.603392113380e+005 1.603392113380e+005 1.603392113380e+005 1.603392113380e+005 1.603392113380e+005 1.603392113380e+005 1.603392113380e+005 1.559422006725e+005 1.559422006725e+005 1.559422006725e+005 1.559422006725e+005 1.559422006725e+005 1.559422006725e+005 1.559422006725e+005 1.559422006725e+005 1.559422006725e+005 1.513466358688e+005 1.513466358688e+005 1.513466358688e+005 1.513466358688e+005 1.513466358688e+005 1.513466358688e+005 1.513466358688e+005 1.513466358688e+005 1.513466358688e+005 1.465245281363e+005 1.465245281363e+005 1.465245281363e+005 1.465245281363e+005 1.465245281363e+005 1.465245281362e+005 1.465245281362e+005 1.465245281362e+005 1.465245281362e+005 1.414420183971e+005 1.414420183971e+005 1.414420183971e+005 1.414420183971e+005 1.414420183971e+005 1.414420183971e+005 1.414420183971e+005 1.414420183971e+005 1.414420183971e+005 1.360575764500e+005 1.360575764500e+005 1.360575764500e+005 1.360575764500e+005 1.360575764500e+005 1.360575764500e+005 1.360575764500e+005 1.360575764500e+005 1.360575764500e+005 1.303194470453e+005 1.303194470454e+005 1.303194470453e+005 1.303194470452e+005 1.303194470452e+005 1.303194470452e+005 1.303194470452e+005 1.303194470451e+005 1.303194470451e+005 1.241619330004e+005 1.241619330001e+005 1.241619330003e+005 1.241619330003e+005 1.241619330003e+005 1.241619330001e+005 1.241619330002e+005 1.241619330002e+005 1.241619330002e+005 1.174998121602e+005 1.174998121607e+005 1.174998121602e+005 1.174998121601e+005 1.174998121599e+005 1.174998121603e+005 1.174998121599e+005 1.174998121600e+005 1.174998121597e+005 1.102196379575e+005 1.102196379567e+005 1.102196379575e+005 1.102196379571e+005 1.102196379575e+005 1.102196379565e+005 1.102196379572e+005 1.102196379566e+005 1.102196379572e+005 1.021655116802e+005 1.021655116805e+005 1.021655116794e+005 1.021655116812e+005 1.021655116795e+005 1.021655116810e+005 1.021655116802e+005 1.021655116816e+005 1.021655116805e+005 9.311456508080e+004 9.311456508435e+004 9.311456508740e+004 9.311456508114e+004 9.311456508803e+004 9.311456508411e+004 9.311456508209e+004 9.311456508184e+004 9.311456508213e+004 8.273288743525e+004 8.273288741801e+004 8.273288740268e+004 8.273288741564e+004 8.273288739060e+004 8.273288740807e+004 8.273288742207e+004 8.273288740614e+004 8.273288741278e+004 7.048856739292e+004 7.048856745115e+004 7.048856752502e+004 7.048856752142e+004 7.048856760860e+004 7.048856752459e+004 7.048856747547e+004 7.048856755664e+004 7.048856753695e+004 5.546765656617e+004 5.546765641620e+004 5.546765619938e+004 5.546765618814e+004 5.546765592223e+004 5.546765623995e+004 5.546765634484e+004 5.546765611752e+004 5.546765610490e+004 3.599903339076e+004 3.599903380835e+004 3.599903445555e+004 3.599903455214e+004 3.599903535089e+004 3.599903432456e+004 3.599903417659e+004 3.599903463803e+004 3.599903497375e+004 9.488776549308e+003 9.488775459601e+003 9.488774286333e+003 9.488774282811e+003 9.488772134037e+003 9.488774811040e+003 9.488774967814e+003 9.488774184218e+003 9.488772965331e+003 -2.223585313186e+004 -2.223585390655e+004 -2.223585783567e+004 -2.223585821509e+004 -2.223585737062e+004 -2.223585412304e+004 -2.223585592431e+004 -2.223585731220e+004 -2.223585844915e+004 -5.358562734592e+004 -5.358563078414e+004 -5.358563114246e+004 -5.358563076841e+004 -5.358562806208e+004 -5.358562919635e+004 -5.358563141039e+004 -5.358562888341e+004 -5.358562978198e+004 -8.440435263603e+004 -8.440435300853e+004 -8.440435300004e+004 -8.440435265803e+004 -8.440435194880e+004 -8.440435041336e+004 -8.440435309049e+004 -8.440435153964e+004 -8.440435127417e+004 -1.147071045605e+005 -1.147071015707e+005 -1.147071033330e+005 -1.147071024561e+005 -1.147070997798e+005 -1.147071011736e+005 -1.147071029070e+005 -1.147071023753e+005 -1.147071022505e+005 -1.445081303191e+005 -1.445081316532e+005 -1.445081317773e+005 -1.445081325659e+005 -1.445081290946e+005 -1.445081291882e+005 -1.445081325494e+005 -1.445081319950e+005 -1.445081304939e+005 -1.738215165579e+005 -1.738215176492e+005 -1.738215169949e+005 -1.738215158078e+005 -1.738215143250e+005 -1.738215153625e+005 -1.738215182888e+005 -1.738215179445e+005 -1.738215154721e+005 -2.026610558602e+005 -2.026610568464e+005 -2.026610566727e+005 -2.026610573078e+005 -2.026610544410e+005 -2.026610559084e+005 -2.026610580605e+005 -2.026610570999e+005 -2.026610554410e+005 -2.310405487411e+005 -2.310405497445e+005 -2.310405510603e+005 -2.310405484533e+005 -2.310405487192e+005 -2.310405498580e+005 -2.310405502108e+005 -2.310405512252e+005 -2.310405478169e+005 -2.589738943823e+005 -2.589738952855e+005 -2.589738948660e+005 -2.589738929093e+005 -2.589738949527e+005 -2.589738945240e+005 -2.589738936837e+005 -2.589738939601e+005 -2.589738933537e+005 -2.864750807901e+005 -2.864750800230e+005 -2.864750796046e+005 -2.864750792549e+005 -2.864750763828e+005 -2.864750765197e+005 -2.864750790514e+005 -2.864750777380e+005 -2.864750775098e+005 -3.135581298002e+005 -3.135581273209e+005 -3.135581270986e+005 -3.135581253046e+005 -3.135581236081e+005 -3.135581239976e+005 -3.135581264231e+005 -3.135581252190e+005 -3.135581261805e+005 -3.402370582239e+005 -3.402370574679e+005 -3.402370574614e+005 -3.402370566413e+005 -3.402370558747e+005 -3.402370557885e+005 -3.402370570152e+005 -3.402370574005e+005 -3.402370571549e+005 -3.665258599744e+005 -3.665258621627e+005 -3.665258626673e+005 -3.665258633852e+005 -3.665258619745e+005 -3.665258627406e+005 -3.665258640457e+005 -3.665258627576e+005 -3.665258619691e+005 -3.924384995344e+005 -3.924384974351e+005 -3.924385000116e+005 -3.924385001662e+005 -3.924384988782e+005 -3.924385012390e+005 -3.924384998321e+005 -3.924385000660e+005 -3.924384995276e+005 -4.179888900229e+005 -4.179888886603e+005 -4.179888884867e+005 -4.179888882383e+005 -4.179888878781e+005 -4.179888897229e+005 -4.179888893843e+005 -4.179888899021e+005 -4.179888879966e+005 -4.431909144642e+005 -4.431909177934e+005 -4.431909182480e+005 -4.431909180394e+005 -4.431909174176e+005 -4.431909190257e+005 -4.431909187196e+005 -4.431909188792e+005 -4.431909194719e+005 -4.680584406227e+005 -4.680584440430e+005 -4.680584431187e+005 -4.680584431525e+005 -4.680584461369e+005 -4.680584441980e+005 -4.680584455593e+005 -4.680584455895e+005 -4.680584458823e+005 -4.926052908360e+005 -4.926052923798e+005 -4.926052928158e+005 -4.926052917712e+005 -4.926052931279e+005 -4.926052935679e+005 -4.926052947125e+005 -4.926052932618e+005 -4.926052934976e+005 -5.168452591690e+005 -5.168452580375e+005 -5.168452582314e+005 -5.168452595368e+005 -5.168452581679e+005 -5.168452589927e+005 -5.168452590986e+005 -5.168452586548e+005 -5.168452582239e+005 -5.407921057562e+005 -5.407921069154e+005 -5.407921053252e+005 -5.407921059339e+005 -5.407921057542e+005 -5.407921065170e+005 -5.407921065992e+005 -5.407921055174e+005 -5.407921067484e+005 -5.644595708510e+005 -5.644595679248e+005 -5.644595672573e+005 -5.644595687319e+005 -5.644595678526e+005 -5.644595670998e+005 -5.644595677154e+005 -5.644595671791e+005 -5.644595685623e+005 -5.878613495143e+005 -5.878613464907e+005 -5.878613450138e+005 -5.878613463659e+005 -5.878613465042e+005 -5.878613468189e+005 -5.878613466422e+005 -5.878613471212e+005 -5.878613450437e+005 -6.110111126817e+005 -6.110111116301e+005 -6.110111103109e+005 -6.110111111722e+005 -6.110111117527e+005 -6.110111115798e+005 -6.110111117516e+005 -6.110111105063e+005 -6.110111104956e+005 -6.339225006541e+005 -6.339224987261e+005 -6.339224975395e+005 -6.339224978855e+005 -6.339224974120e+005 -6.339224959304e+005 -6.339224976943e+005 -6.339224971300e+005 -6.339224966002e+005 -6.566091112724e+005 -6.566091084088e+005 -6.566091077218e+005 -6.566091058815e+005 -6.566091059769e+005 -6.566091057115e+005 -6.566091059759e+005 -6.566091046533e+005 -6.566091039318e+005 -6.790845076865e+005 -6.790845067522e+005 -6.790845057192e+005 -6.790845043501e+005 -6.790845037506e+005 -6.790845028666e+005 -6.790845029740e+005 -6.790845015818e+005 -6.790845021046e+005 -7.013622250763e+005 -7.013622249254e+005 -7.013622227558e+005 -7.013622240517e+005 -7.013622217503e+005 -7.013622213188e+005 -7.013622210391e+005 -7.013622198973e+005 -7.013622188029e+005 -7.234557605450e+005 -7.234557595540e+005 -7.234557604885e+005 -7.234557582117e+005 -7.234557578871e+005 -7.234557567346e+005 -7.234557565072e+005 -7.234557563129e+005 -7.234557552393e+005 -7.453785763376e+005 -7.453785779157e+005 -7.453785772788e+005 -7.453785770993e+005 -7.453785756677e+005 -7.453785752379e+005 -7.453785743818e+005 -7.453785729870e+005 -7.453785723122e+005 -7.671441087504e+005 -7.671441106301e+005 -7.671441113608e+005 -7.671441098959e+005 -7.671441082856e+005 -7.671441083883e+005 -7.671441068169e+005 -7.671441054673e+005 -7.671441053105e+005 -7.887657580084e+005 -7.887657603450e+005 -7.887657601984e+005 -7.887657601645e+005 -7.887657591928e+005 -7.887657574184e+005 -7.887657562284e+005 -7.887657559332e+005 -7.887657552572e+005 -8.102569021596e+005 -8.102569002177e+005 -8.102569010800e+005 -8.102569010145e+005 -8.102569006998e+005 -8.102568981399e+005 -8.102568971168e+005 -8.102568979158e+005 -8.102568975855e+005 -8.316308828004e+005 -8.316308822341e+005 -8.316308819973e+005 -8.316308819010e+005 -8.316308809321e+005 -8.316308786956e+005 -8.316308793407e+005 -8.316308787094e+005 -8.316308790404e+005 -8.529010282944e+005 -8.529010275169e+005 -8.529010274686e+005 -8.529010260392e+005 -8.529010258875e+005 -8.529010248432e+005 -8.529010245651e+005 -8.529010239750e+005 -8.529010246835e+005 -8.740806399216e+005 -8.740806390208e+005 -8.740806393915e+005 -8.740806390241e+005 -8.740806378892e+005 -8.740806377701e+005 -8.740806371500e+005 -8.740806370803e+005 -8.740806358869e+005 -8.951830011667e+005 -8.951830018375e+005 -8.951830026128e+005 -8.951830021522e+005 -8.951830014161e+005 -8.951830017166e+005 -8.951830010672e+005 -8.951830011013e+005 -8.951830008281e+005 -9.162213827945e+005 -9.162213835652e+005 -9.162213841086e+005 -9.162213835239e+005 -9.162213834784e+005 -9.162213837005e+005 -9.162213828848e+005 -9.162213834162e+005 -9.162213834862e+005 -9.372090372581e+005 -9.372090373720e+005 -9.372090377156e+005 -9.372090378412e+005 -9.372090366981e+005 -9.372090365378e+005 -9.372090368421e+005 -9.372090371078e+005 -9.372090369504e+005 -9.581592033821e+005 -9.581592042044e+005 -9.581592048363e+005 -9.581592047636e+005 -9.581592044591e+005 -9.581592037807e+005 -9.581592037806e+005 -9.581592039508e+005 -9.581592040629e+005 -9.790851164975e+005 -9.790851169294e+005 -9.790851171813e+005 -9.790851170312e+005 -9.790851171244e+005 -9.790851166653e+005 -9.790851166649e+005 -9.790851168288e+005 -9.790851166709e+005 -1.000000000000e+006 -1.000000000000e+006 -1.000000000000e+006 -1.000000000000e+006 -1.000000000000e+006 -1.000000000000e+006 -1.000000000000e+006 -1.000000000000e+006 -1.000000000000e+006 
        </DataArray>
        <DataArray type="Float64" Name="NONWET_PRESSURE" format="ascii">