<?xml version="1.0"?>
<VTKFile type="UnstructuredGrid" version="0.1" byte_order="LittleEndian">
  <UnstructuredGrid>
    <Piece NumberOfPoints="909" NumberOfCells="800">
      <Points>
        <DataArray type="Float64" NumberOfComponents="3" format="ascii">
          0.000000000000e+000 0.000000000000e+000 0.000000000000e+000
          2.000000000000e+000 0.000000000000e+000 0.000000000000e+000
          2.000000000000e+000 2.500000000000e+000 0.000000000000e+000
          0.000000000000e+000 2.500000000000e+000 0.000000000000e+000
          2.000000000000e+000 5.000000000000e+000 0.000000000000e+000
          0.000000000000e+000 5.000000000000e+000 0.000000000000e+000
          2.000000000000e+000 7.500000000000e+000 0.000000000000e+000
          0.000000000000e+000 7.500000000000e+000 0.000000000000e+000
          2.000000000000e+000 1.000000000000e+001 0.000000000000e+000
          0.000000000000e+000 1.000000000000e+001 0.000000000000e+000
          2.000000000000e+000 1.250000000000e+001 0.000000000000e+000
          0.000000000000e+000 1.250000000000e+001 0.000000000000e+000
          2.000000000000e+000 1.500000000000e+001 0.000000000000e+000
          0.000000000000e+000 1.500000000000e+001 0.000000000000e+000
          2.000000000000e+000 1.750000000000e+001 0.000000000000e+000
          0.000000000000e+000 1.750000000000e+001 0.000000000000e+000
          2.000000000000e+000 2.000000000000e+001 0.000000000000e+000
          0.000000000000e+000 2.000000000000e+001 0.000000000000e+000
          4.000000000000e+000 0.000000000000e+000 0.000000000000e+000
          4.000000000000e+000 2.500000000000e+000 0.000000000000e+000
          4.000000000000e+000 5.000000000000e+000 0.000000000000e+000
          4.000000000000e+000 7.500000000000e+000 0.000000000000e+000
          4.000000000000e+000 1.000000000000e+001 0.000000000000e+000
          4.000000000000e+000 1.250000000000e+001 0.000000000000e+000
          4.000000000000e+000 1.500000000000e+001 0.000000000000e+000
          4.000000000000e+000 1.750000000000e+001 0.000000000000e+000
          4.000000000000e+000 2.000000000000e+001 0.000000000000e+000
          6.000000000000e+000 0.000000000000e+000 0.000000000000e+000
          6.000000000000e+000 2.500000000000e+000 0.000000000000e+000
          6.000000000000e+000 5.000000000000e+000 0.000000000000e+000
          6.000000000000e+000 7.500000000000e+000 0.000000000000e+000
          6.000000000000e+000 1.000000000000e+001 0.000000000000e+000
          6.000000000000e+000 1.250000000000e+001 0.000000000000e+000
          6.000000000000e+000 1.500000000000e+001 0.000000000000e+000
          6.000000000000e+000 1.750000000000e+001 0.000000000000e+000
          6.000000000000e+000 2.000000000000e+001 0.000000000000e+000
          8.000000000000e+000 0.000000000000e+000 0.000000000000e+000
          8.000000000000e+000 2.500000000000e+000 0.000000000000e+000
          8.000000000000e+000 5.000000000000e+000 0.000000000000e+000
          8.000000000000e+000 7.500000000000e+000 0.000000000000e+000
          8.000000000000e+000 1.000000000000e+001 0.000000000000e+000
          8.000000000000e+000 1.250000000000e+001 0.000000000000e+000
          8.000000000000e+000 1.500000000000e+001 0.000000000000e+000
          8.000000000000e+000 1.750000000000e+001 0.000000000000e+000
          8.000000000000e+000 2.000000000000e+001 0.000000000000e+000
          1.000000000000e+001 0.000000000000e+000 0.000000000000e+000
          1.000000000000e+001 2.500000000000e+000 0.000000000000e+000
          1.000000000000e+001 5.000000000000e+000 0.000000000000e+000
          1.000000000000e+001 7.500000000000e+000 0.000000000000e+000
          1.000000000000e+001 1.000000000000e+001 0.000000000000e+000
          1.000000000000e+001 1.250000000000e+001 0.000000000000e+000
          1.000000000000e+001 1.500000000000e+001 0.000000000000e+000
          1.000000000000e+001 1.750000000000e+001 0.000000000000e+000
          1.000000000000e+001 2.000000000000e+001 0.000000000000e+000
          1.200000000000e+001 0.000000000000e+000 0.000000000000e+000
          1.200000000000e+001 2.500000000000e+000 0.000000000000e+000
          1.200000000000e+001 5.000000000000e+000 0.000000000000e+000
          1.200000000000e+001 7.500000000000e+000 0.000000000000e+000
          1.200000000000e+001 1.000000000000e+001 0.000000000000e+000
          1.200000000000e+001 1.250000000000e+001 0.000000000000e+000
          1.200000000000e+001 1.500000000000e+001 0.000000000000e+000
          1.200000000000e+001 1.750000000000e+001 0.000000000000e+000
          1.200000000000e+001 2.000000000000e+001 0.000000000000e+000
          1.400000000000e+001 0.000000000000e+000 0.000000000000e+000
          1.400000000000e+001 2.500000000000e+000 0.000000000000e+000
          1.400000000000e+001 5.000000000000e+000 0.000000000000e+000
          1.400000000000e+001 7.500000000000e+000 0.000000000000e+000
          1.400000000000e+001 1.000000000000e+001 0.000000000000e+000
          1.400000000000e+001 1.250000000000e+001 0.000000000000e+000
          1.400000000000e+001 1.500000000000e+001 0.000000000000e+000
          1.400000000000e+001 1.750000000000e+001 0.000000000000e+000
          1.400000000000e+001 2.000000000000e+001 0.000000000000e+000
          1.600000000000e+001 0.000000000000e+000 0.000000000000e+000
          1.600000000000e+001 2.500000000000e+000 0.000000000000e+000
          1.600000000000e+001 5.000000000000e+000 0.000000000000e+000
          1.600000000000e+001 7.500000000000e+000 0.000000000000e+000
          1.600000000000e+001 1.000000000000e+001 0.000000000000e+000
          1.600000000000e+001 1.250000000000e+001 0.000000000000e+000
          1.600000000000e+001 1.500000000000e+001 0.000000000000e+000
          1.600000000000e+001 1.750000000000e+001 0.000000000000e+000
          1.600000000000e+001 2.000000000000e+001 0.000000000000e+000
          1.800000000000e+001 0.000000000000e+000 0.000000000000e+000
          1.800000000000e+001 2.500000000000e+000 0.000000000000e+000
          1.800000000000e+001 5.000000000000e+000 0.000000000000e+000
          1.800000000000e+001 7.500000000000e+000 0.000000000000e+000
          1.800000000000e+001 1.000000000000e+001 0.000000000000e+000
          1.800000000000e+001 1.250000000000e+001 0.000000000000e+000
          1.800000000000e+001 1.500000000000e+001 0.000000000000e+000
          1.800000000000e+001 1.750000000000e+001 0.000000000000e+000
          1.800000000000e+001 2.000000000000e+001 0.000000000000e+000
          2.000000000000e+001 0.000000000000e+000 0.000000000000e+000
          2.000000000000e+001 2.500000000000e+000 0.000000000000e+000
          2.000000000000e+001 5.000000000000e+000 0.000000000000e+000
          2.000000000000e+001 7.500000000000e+000 0.000000000000e+000
          2.000000000000e+001 1.000000000000e+001 0.000000000000e+000
          2.000000000000e+001 1.250000000000e+001 0.000000000000e+000
          2.000000000000e+001 1.500000000000e+001 0.000000000000e+000
          2.000000000000e+001 1.750000000000e+001 0.000000000000e+000
          2.000000000000e+001 2.000000000000e+001 0.000000000000e+000
          2.200000000000e+001 0.000000000000e+000 0.000000000000e+000
          2.200000000000e+001 2.500000000000e+000 0.000000000000e+000
          2.200000000000e+001 5.000000000000e+000 0.000000000000e+000
          2.200000000000e+001 7.500000000000e+000 0.000000000000e+000
          2.200000000000e+001 1.000000000000e+001 0.000000000000e+000
          2.200000000000e+001 1.250000000000e+001 0.000000000000e+000
          2.200000000000e+001 1.500000000000e+001 0.000000000000e+000
          2.200000000000e+001 1.750000000000e+001 0.000000000000e+000
          2.200000000000e+001 2.000000000000e+001 0.000000000000e+000
          2.400000000000e+001 0.000000000000e+000 0.000000000000e+000
          2.400000000000e+001 2.500000000000e+000 0.000000000000e+000
          2.400000000000e+001 5.000000000000e+000 0.000000000000e+000
          2.400000000000e+001 7.500000000000e+000 0.000000000000e+000
          2.400000000000e+001 1.000000000000e+001 0.000000000000e+000
          2.400000000000e+001 1.250000000000e+001 0.000000000000e+000
          2.400000000000e+001 1.500000000000e+001 0.000000000000e+000
          2.400000000000e+001 1.750000000000e+001 0.000000000000e+000
          2.400000000000e+001 2.000000000000e+001 0.000000000000e+000
          2.600000000000e+001 0.000000000000e+000 0.000000000000e+000
          2.600000000000e+001 2.500000000000e+000 0.000000000000e+000
          2.600000000000e+001 5.000000000000e+000 0.000000000000e+000
          2.600000000000e+001 7.500000000000e+000 0.000000000000e+000
          2.600000000000e+001 1.000000000000e+001 0.000000000000e+000
          2.600000000000e+001 1.250000000000e+001 0.000000000000e+000
          2.600000000000e+001 1.500000000000e+001 0.000000000000e+000
          2.600000000000e+001 1.750000000000e+001 0.000000000000e+000
          2.600000000000e+001 2.000000000000e+001 0.000000000000e+000
          2.800000000000e+001 0.000000000000e+000 0.000000000000e+000
          2.800000000000e+001 2.500000000000e+000 0.000000000000e+000
          2.800000000000e+001 5.000000000000e+000 0.000000000000e+000
          2.800000000000e+001 7.500000000000e+000 0.000000000000e+000
          2.800000000000e+001 1.000000000000e+001 0.000000000000e+000
          2.800000000000e+001 1.250000000000e+001 0.000000000000e+000
          2.800000000000e+001 1.500000000000e+001 0.000000000000e+000
          2.800000000000e+001 1.750000000000e+001 0.000000000000e+000
          2.800000000000e+001 2.000000000000e+001 0.000000000000e+000
          3.000000000000e+001 0.000000000000e+000 0.000000000000e+000
          3.000000000000e+001 2.500000000000e+000 0.000000000000e+000
          3.000000000000e+001 5.000000000000e+000 0.000000000000e+000
          3.000000000000e+001 7.500000000000e+000 0.000000000000e+000
[...]
      <PointData Scalars="CAPILLARY_PRESSURE">
        <DataArray type="Float64" Name="CAPILLARY_PRESSURE" format="ascii">
          3.761386524857e+005 3.742680108848e+005 3.742680108846e+005 3.761386524858e+005 3.742680108846e+005 3.761386524857e+005 3.742680108847e+005 3.761386524855e+005 3.742680108846e+005 3.761386524860e+005 3.742680108848e+005 3.761386524857e+005 3.742680108847e+005 3.761386524862e+005 3.742680108850e+005 3.761386524858e+005 3.742680108853e+005 3.761386524868e+005 3.723895054648e+005 3.723895054647e+005 3.723895054645e+005 3.723895054646e+005 3.723895054649e+005 3.723895054648e+005 3.723895054649e+005 3.723895054647e+005 3.723895054650e+005 3.705019865210e+005 3.705019865210e+005 3.705019865208e+005 3.705019865212e+005 3.705019865213e+005 3.705019865215e+005 3.705019865212e+005 3.705019865210e+005 3.705019865213e+005 3.686048340787e+005 3.686048340786e+005 3.686048340786e+005 3.686048340790e+005 3.686048340790e+005 3.686048340789e+005 3.686048340788e+005 3.686048340788e+005 3.686048340789e+005 3.666975979180e+005 3.666975979180e+005 3.666975979182e+005 3.666975979181e+005 3.666975979183e+005 3.666975979183e+005 3.666975979182e+005 3.666975979182e+005 3.666975979180e+005 3.647798692445e+005 3.647798692444e+005 3.647798692442e+005 3.647798692445e+005 3.647798692443e+005 3.647798692445e+005 3.647798692446e+005 3.647798692443e+005 3.647798692446e+005 3.628512357056e+005 3.628512357056e+005 3.628512357053e+005 3.628512357052e+005 3.628512357053e+005 3.628512357055e+005 3.628512357054e+005 3.628512357052e+005 3.628512357055e+005 3.609112682553e+005 3.609112682554e+005 3.609112682553e+005 3.609112682549e+005 3.609112682553e+005 3.609112682552e+005 3.609112682553e+005 3.609112682552e+005 3.609112682553e+005 3.589595180303e+005 3.589595180302e+005 3.589595180301e+005 3.589595180303e+005 3.589595180300e+005 3.589595180303e+005 3.589595180302e+005 3.589595180302e+005 3.589595180299e+005 3.569955162291e+005 3.569955162291e+005 3.569955162293e+005 3.569955162293e+005 3.569955162291e+005 3.569955162290e+005 3.569955162293e+005 3.569955162291e+005 3.569955162291e+005 3.550187741518e+005 3.550187741520e+005 3.550187741518e+005 3.550187741518e+005 3.550187741517e+005 3.550187741517e+005 3.550187741514e+005 3.550187741516e+005 3.550187741518e+005 3.530287827327e+005 3.530287827325e+005 3.530287827327e+005 3.530287827325e+005 3.530287827324e+005 3.530287827325e+005 3.530287827325e+005 3.530287827324e+005 3.530287827324e+005 3.510250117294e+005 3.510250117298e+005 3.510250117297e+005 3.510250117295e+005 3.510250117294e+005 3.510250117296e+005 3.510250117298e+005 3.510250117294e+005 3.510250117292e+005 3.490069086037e+005 3.490069086038e+005 3.490069086037e+005 3.490069086036e+005 3.490069086036e+005 3.490069086035e+005 3.490069086035e+005 3.490069086031e+005 3.490069086034e+005 3.469738972002e+005 3.469738972003e+005 3.469738972001e+005 3.469738971999e+005 3.469738972000e+005 3.469738971998e+005 3.469738972001e+005 3.469738971998e+005 3.469738971996e+005 3.449253763302e+005 3.449253763304e+005 3.449253763301e+005 3.449253763299e+005 3.449253763299e+005 3.449253763299e+005 3.449253763299e+005 3.449253763300e+005 3.449253763301e+005 3.428607183009e+005 3.428607183008e+005 3.428607183006e+005 3.428607183003e+005 3.428607183004e+005 3.428607183006e+005 3.428607183006e+005 3.428607183005e+005 3.428607183006e+005 3.407792674085e+005 3.407792674083e+005 3.407792674081e+005 3.407792674081e+005 3.407792674080e+005 3.407792674084e+005 3.407792674081e+005 3.407792674081e+005 3.407792674082e+005 3.386803383906e+005 3.386803383906e+005 3.386803383906e+005 3.386803383902e+005 3.386803383905e+005 3.386803383907e+005 3.386803383903e+005 3.386803383904e+005 3.386803383907e+005 3.365632148145e+005 3.365632148150e+005 3.365632148145e+005 3.365632148147e+005 3.365632148148e+005 3.365632148149e+005 3.365632148146e+005 3.365632148145e+005 3.365632148146e+005 3.344271473825e+005 3.344271473820e+005 3.344271473819e+005 3.344271473821e+005 3.344271473822e+005 3.344271473822e+005 3.344271473821e+005 3.344271473821e+005 3.344271473821e+005 3.322713521214e+005 3.322713521219e+005 3.322713521217e+005 3.322713521219e+005 3.322713521218e+005 3.322713521222e+005 3.322713521221e+005 3.322713521220e+005 3.322713521219e+005 3.300950084519e+005 3.300950084519e+005 3.300950084523e+005 3.300950084518e+005 3.300950084521e+005 3.300950084526e+005 3.300950084525e+005 3.300950084522e+005 3.300950084523e+005 3.278972570821e+005 3.278972570818e+005 3.278972570823e+005 3.278972570822e+005 3.278972570822e+005 3.278972570824e+005 3.278972570824e+005 3.278972570823e+005 3.278972570822e+005 3.256771977382e+005 3.256771977384e+005 3.256771977388e+005 3.256771977390e+005 3.256771977389e+005 3.256771977392e+005 3.256771977392e+005 3.256771977392e+005 3.256771977390e+005 3.234338866837e+005 3.234338866837e+005 3.234338866839e+005 3.234338866843e+005 3.234338866844e+005 3.234338866845e+005 3.234338866844e+005 3.234338866843e+005 3.234338866845e+005 3.211663340117e+005 3.211663340114e+005 3.211663340118e+005 3.211663340118e+005 3.211663340121e+005 3.211663340118e+005 3.211663340119e+005 3.211663340120e+005 3.211663340118e+005 3.188735006860e+005 3.188735006863e+005 3.188735006866e+005 3.188735006866e+005 3.188735006866e+005 3.188735006866e+005 3.188735006865e+005 3.188735006866e+005 3.188735006867e+005 3.165542953055e+005 3.165542953055e+005 3.165542953061e+005 3.165542953060e+005 3.165542953062e+005 3.165542953062e+005 3.165542953062e+005 3.165542953063e+005 3.165542953062e+005 3.142075705490e+005 3.142075705488e+005 3.142075705491e+005 3.142075705491e+005 3.142075705495e+005 3.142075705496e+005 3.142075705494e+005 3.142075705494e+005 3.142075705496e+005 3.118321192788e+005 3.118321192787e+005 3.118321192789e+005 3.118321192786e+005 3.118321192792e+005 3.118321192793e+005 3.118321192791e+005 3.118321192792e+005 3.118321192792e+005 3.094266702553e+005 3.094266702553e+005 3.094266702554e+005 3.094266702556e+005 3.094266702557e+005 3.094266702557e+005 3.094266702558e+005 3.094266702557e+005 3.094266702556e+005 3.069898834185e+005 3.069898834184e+005 3.069898834185e+005 3.069898834185e+005 3.069898834187e+005 3.069898834186e+005 3.069898834185e+005 3.069898834187e+005 3.069898834185e+005 3.045203446812e+005 3.045203446811e+005 3.045203446809e+005 3.045203446809e+005 3.045203446810e+005 3.045203446810e+005 3.045203446808e+005 3.045203446810e+005 3.045203446811e+005 3.020165601795e+005 3.020165601794e+005 3.020165601794e+005 3.020165601794e+005 3.020165601792e+005 3.020165601792e+005 3.020165601793e+005 3.020165601792e+005 3.020165601793e+005 2.994769499034e+005 2.994769499030e+005 2.994769499031e+005 2.994769499029e+005 2.994769499031e+005 2.994769499028e+005 2.994769499028e+005 2.994769499029e+005 2.994769499028e+005 2.968998406313e+005 2.968998406310e+005 2.968998406310e+005 2.968998406309e+005 2.968998406308e+005 2.968998406309e+005 2.968998406309e+005 2.968998406308e+005 2.968998406311e+005 2.942834580746e+005 2.942834580745e+005 2.942834580745e+005 2.942834580743e+005 2.942834580743e+005 2.942834580745e+005 2.942834580745e+005 2.942834580748e+005 2.942834580746e+005 2.916259181207e+005 2.916259181207e+005 2.916259181204e+005 2.916259181204e+005 2.916259181205e+005 2.916259181204e+005 2.916259181206e+005 2.916259181208e+005 2.916259181206e+005 2.889252170501e+005 2.889252170500e+005 2.889252170500e+005 2.889252170499e+005 2.889252170499e+005 2.889252170499e+005 2.889252170499e+005 2.889252170502e+005 2.889252170500e+005 2.861792205794e+005 2.861792205795e+005 2.861792205794e+005 2.861792205794e+005 2.861792205791e+005 2.861792205793e+005 2.861792205794e+005 2.861792205793e+005 2.861792205793e+005 2.833856515545e+005 2.833856515545e+005 2.833856515541e+005 2.833856515544e+005 2.833856515543e+005 2.833856515546e+005 2.833856515543e+005 2.833856515543e+005 2.833856515544e+005 2.805420760888e+005 2.805420760884e+005 2.805420760881e+005 2.805420760882e+005 2.805420760885e+005 2.805420760885e+005 2.805420760885e+005 2.805420760882e+005 2.805420760883e+005 2.776458879041e+005 2.776458879042e+005 2.776458879039e+005 2.776458879041e+005 2.776458879040e+005 2.776458879039e+005 2.776458879038e+005 2.776458879041e+005 2.776458879038e+005 2.746942905892e+005 2.746942905891e+005 2.746942905893e+005 2.746942905892e+005 2.746942905892e+005 2.746942905890e+005 2.746942905889e+005 2.746942905890e+005 2.746942905892e+005 2.716842774230e+005 2.716842774232e+005 2.716842774230e+005 2.716842774230e+005 2.716842774232e+005 2.716842774228e+005 2.716842774229e+005 2.716842774230e+005 2.716842774225e+005 2.686126083597e+005 2.686126083599e+005 2.686126083597e+005 2.686126083598e+005 2.686126083598e+005 2.686126083595e+005 2.686126083593e+005 2.686126083596e+005 2.686126083594e+005 2.654757836759e+005 2.654757836757e+005 2.654757836759e+005 2.654757836758e+005 2.654757836755e+005 2.654757836758e+005 2.654757836754e+005 2.654757836754e+005 2.654757836754e+005 2.622700136769e+005 2.622700136769e+005 2.622700136767e+005 2.622700136767e+005 2.622700136768e+005 2.622700136766e+005 2.622700136763e+005 2.622700136764e+005 2.622700136767e+005 2.589911837361e+005 2.589911837361e+005 2.589911837360e+005 2.589911837360e+005 2.589911837359e+005 2.589911837357e+005 2.589911837359e+005 2.589911837357e+005 2.589911837355e+005 2.556348137684e+005 2.556348137688e+005 2.556348137684e+005 2.556348137684e+005 2.556348137684e+005 2.556348137684e+005 2.556348137682e+005 2.556348137685e+005 2.556348137684e+005 2.521960110380e+005 2.521960110383e+005 2.521960110380e+005 2.521960110380e+005 2.521960110380e+005 2.521960110379e+005 2.521960110381e+005 2.521960110379e+005 2.521960110379e+005 2.486694149284e+005 2.486694149281e+005 2.486694149282e+005 2.486694149281e+005 2.486694149281e+005 2.486694149281e+005 2.486694149282e+005 2.486694149281e+005 2.486694149283e+005 2.450491319652e+005 2.450491319650e+005 2.450491319647e+005 2.450491319648e+005 2.450491319649e+005 2.450491319650e+005 2.450491319651e+005 2.450491319650e+005 2.450491319651e+005 2.413286589306e+005 2.413286589310e+005 2.413286589309e+005 2.413286589308e+005 2.413286589307e+005 2.413286589312e+005 2.413286589306e+005 2.413286589310e+005 2.413286589307e+005 2.375007913200e+005 2.375007913199e+005 2.375007913197e+005 2.375007913196e+005 2.375007913193e+005 2.375007913198e+005 2.375007913199e+005 2.375007913195e+005 2.375007913197e+005 2.335575136021e+005 2.335575136021e+005 2.335575136019e+005 2.335575136020e+005 2.335575136019e+005 2.335575136022e+005 2.335575136022e+005 2.335575136022e+005 2.335575136017e+005 2.294898667116e+005 2.294898667118e+005 2.294898667117e+005 2.294898667116e+005 2.294898667116e+005 2.294898667115e+005 2.294898667119e+005 2.294898667115e+005 2.294898667118e+005 2.252877867409e+005 2.252877867413e+005 2.252877867412e+005 2.252877867412e+005 2.252877867411e+005 2.252877867410e+005 2.252877867409e+005 2.252877867412e+005 2.252877867414e+005 2.209399068573e+005 2.209399068577e+005 2.209399068575e+005 2.209399068574e+005 2.209399068577e+005 2.209399068571e+005 2.209399068575e+005 2.209399068579e+005 2.209399068573e+005 2.164333117090e+005 2.164333117088e+005 2.164333117088e+005 2.164333117090e+005 2.164333117087e+005 2.164333117089e+005 2.164333117088e+005 2.164333117090e+005 2.164333117093e+005 2.117532296988e+005 2.117532296987e+005 2.117532296988e+005 2.117532296989e+005 2.117532296986e+005 2.117532296986e+005 2.117532296986e+005 2.117532296987e+005 2.117532296988e+005 2.068826429191e+005 2.068826429191e+005 2.068826429192e+005 2.068826429192e+005 2.068826429191e+005 2.068826429189e+005 2.068826429190e+005 2.068826429190e+005 2.068826429188e+005 2.018017863511e+005 2.018017863514e+005 2.018017863512e+005 2.018017863514e+005 2.018017863513e+005 2.018017863512e+005 2.018017863509e+005 2.018017863511e+005 2.018017863508e+005 1.964874957518e+005 1.964874957522e+005 1.964874957522e+005 1.964874957520e+005 1.964874957521e+005 1.964874957520e+005 1.964874957521e+005 1.964874957521e+005 1.964874957520e+005 1.909123451112e+005 1.909123451110e+005 1.909123451111e+005 1.909123451111e+005 1.909123451115e+005 1.909123451112e+005 1.909123451116e+005 1.909123451117e+005 1.909123451113e+005 1.850434856915e+005 1.850434856915e+005 1.850434856914e+005 1.850434856912e+005 1.850434856915e+005 1.850434856915e+005 1.850434856917e+005 1.850434856918e+005 1.850434856918e+005 1.788410524782e+005 1.788410524779e+005 1.788410524780e+005 1.788410524778e+005 1.788410524781e+005 1.788410524785e+005 1.788410524781e+005 1.788410524783e+005 1.788410524783e+005 1.722559275709e+005 1.722559275708e+005 1.722559275704e+005 1.722559275705e+005 1.722559275709e+005 1.722559275710e+005 1.722559275709e+005 1.722559275708e+005 1.722559275703e+005 1.652265195202e+005 1.652265195202e+005 1.652265195203e+005 1.652265195205e+005 1.652265195209e+005 1.652265195211e+005 1.652265195208e+005 1.652265195204e+005 1.652265195202e+005 1.576739854860e+005 1.576739854860e+005 1.576739854862e+005 1.576739854863e+005 1.576739854866e+005 1.576739854868e+005 1.576739854865e+005 1.576739854861e+005 1.576739854860e+005 1.494948917763e+005 1.494948917766e+005 1.494948917766e+005 1.494948917770e+005 1.494948917767e+005 1.494948917769e+005 1.494948917766e+005 1.494948917767e+005 1.494948917766e+005 1.405494619525e+005 1.405494619528e+005 1.405494619528e+005 1.405494619526e+005 1.405494619528e+005 1.405494619525e+005 1.405494619523e+005 1.405494619528e+005 1.405494619526e+005 1.306417738855e+005 1.306417738857e+005 1.306417738857e+005 1.306417738857e+005 1.306417738854e+005 1.306417738852e+005 1.306417738852e+005 1.306417738861e+005 1.306417738859e+005 1.194841674483e+005 1.194841674488e+005 1.194841674484e+005 1.194841674487e+005 1.194841674481e+005 1.194841674479e+005 1.194841674483e+005 1.194841674491e+005 1.194841674486e+005 1.066278936501e+005 1.066278936508e+005 1.066278936506e+005 1.066278936498e+005 1.066278936499e+005 1.066278936502e+005 1.066278936500e+005 1.066278936505e+005 1.066278936506e+005 9.131256044035e+004 9.131256044073e+004 9.131256044056e+004 9.131256044068e+004 9.131256044066e+004 9.131256043975e+004 9.131256044063e+004 9.131256044210e+004 9.131256044218e+004 7.208758202035e+004 7.208758202279e+004 7.208758201999e+004 7.208758202106e+004 7.208758201935e+004 7.208758201946e+004 7.208758202065e+004 7.208758202438e+004 7.208758202543e+004 4.567555284218e+004 4.567555282949e+004 4.567555284137e+004 4.567555283021e+004 4.567555284009e+004 4.567555283803e+004 4.567555284097e+004 4.567555284866e+004 4.567555284337e+004 4.628376308263e+003 4.628376315288e+003 4.628376284884e+003 4.628376315743e+003 4.628376302250e+003 4.628376306096e+003 4.628376287351e+003 4.628376290001e+003 4.628376275821e+003 -4.564849761730e+004 -4.564849495000e+004 -4.564849372466e+004 -4.564849511855e+004 -4.564849540851e+004 -4.564849588883e+004 -4.564849599319e+004 -4.564849629569e+004 -4.564849406108e+004 -9.596651700418e+004 -9.596651602995e+004 -9.596651485134e+004 -9.596651582135e+004 -9.596651650801e+004 -9.596651646993e+004 -9.596651672722e+004 -9.596651547493e+004 -9.596651542855e+004 -1.462931321350e+005 -1.462931302408e+005 -1.462931291311e+005 -1.462931295639e+005 -1.462931291782e+005 -1.462931277792e+005 -1.462931295999e+005 -1.462931290541e+005 -1.462931285245e+005 -1.966135552937e+005 -1.966135524493e+005 -1.966135518095e+005 -1.966135500314e+005 -1.966135501918e+005 -1.966135499845e+005 -1.966135502911e+005 -1.966135489901e+005 -1.966135482745e+005 -2.469219480156e+005 -2.469219470931e+005 -2.469219460907e+005 -2.469219447667e+005 -2.469219442130e+005 -2.469219433712e+005 -2.469219435112e+005 -2.469219421379e+005 -2.469219426666e+005 -2.972163264190e+005 -2.972163262766e+005 -2.972163241283e+005 -2.972163254546e+005 -2.972163231876e+005 -2.972163227867e+005 -2.972163225310e+005 -2.972163214044e+005 -2.972163203159e+005 -3.474964203183e+005 -3.474964193326e+005 -3.474964202828e+005 -3.474964180275e+005 -3.474964177270e+005 -3.474964165968e+005 -3.474964163875e+005 -3.474964162050e+005 -3.474964151360e+005 -3.977624965952e+005 -3.977624981769e+005 -3.977624975502e+005 -3.977624973863e+005 -3.977624959718e+005 -3.977624955577e+005 -3.977624947154e+005 -3.977624933302e+005 -3.977624926581e+005 -4.480150081283e+005 -4.480150100100e+005 -4.480150107474e+005 -4.480150092948e+005 -4.480150076955e+005 -4.480150078105e+005 -4.480150062488e+005 -4.480150049062e+005 -4.480150047518e+005 -4.982543801159e+005 -4.982543824535e+005 -4.982543823123e+005 -4.982543822854e+005 -4.982543813231e+005 -4.982543795567e+005 -4.982543783747e+005 -4.982543780845e+005 -4.982543774104e+005 -5.484809877756e+005 -5.484809858343e+005 -5.484809867001e+005 -5.484809866395e+005 -5.484809863314e+005 -5.484809837774e+005 -5.484809827600e+005 -5.484809835625e+005 -5.484809832338e+005 -5.986951549688e+005 -5.986951544033e+005 -5.986951541686e+005 -5.986951540756e+005 -5.986951531114e+005 -5.986951508790e+005 -5.986951515285e+005 -5.986951508999e+005 -5.986951512320e+005 -6.488971962996e+005 -6.488971955214e+005 -6.488971954749e+005 -6.488971940486e+005 -6.488971938994e+005 -6.488971928587e+005 -6.488971925830e+005 -6.488971919950e+005 -6.488971927045e+005 -6.990874192408e+005 -6.990874183404e+005 -6.990874187113e+005 -6.990874183458e+005 -6.990874172135e+005 -6.990874170969e+005 -6.990874164782e+005 -6.990874164099e+005 -6.990874152169e+005 -7.492661443518e+005 -7.492661450227e+005 -7.492661457985e+005 -7.492661453392e+005 -7.492661446048e+005 -7.492661449075e+005 -7.492661442591e+005 -7.492661442940e+005 -7.492661440212e+005 -7.994337157204e+005 -7.994337164912e+005 -7.994337170351e+005 -7.994337164519e+005 -7.994337164077e+005 -7.994337166310e+005 -7.994337158163e+005 -7.994337163479e+005 -7.994337164184e+005 -8.495904955962e+005 -8.495904957102e+005 -8.495904960538e+005 -8.495904961806e+005 -8.495904950387e+005 -8.495904948790e+005 -8.495904951839e+005 -8.495904954494e+005 -8.495904952928e+005 -8.997368653941e+005 -8.997368662163e+005 -8.997368668483e+005 -8.997368667761e+005 -8.997368664727e+005 -8.997368657948e+005 -8.997368657948e+005 -8.997368659652e+005 -8.997368660775e+005 -9.498732297105e+005 -9.498732301424e+005 -9.498732303943e+005 -9.498732302444e+005 -9.498732303379e+005 -9.498732298792e+005 -9.498732298789e+005 -9.498732300428e+005 -9.498732298851e+005 -1.000000000000e+006 -1.000000000000e+006 -1.000000000000e+006 -1.000000000000e+006 -1.000000000000e+006 -1.000000000000e+006 -1.000000000000e+006 -1.000000000000e+006 -1.000000000000e+006 
        </DataArray>
        <DataArray type="Float64" Name="NONWET_PRESSURE" format="ascii">