<?xml version="1.0"?>
<VTKFile type="UnstructuredGrid" version="0.1" byte_order="LittleEndian">
  <UnstructuredGrid>
    <Piece NumberOfPoints="909" NumberOfCells="800">
      <Points>
        <DataArray type="Float64" NumberOfComponents="3" format="ascii">
          0.000000000000e+000 0.000000000000e+000 0.000000000000e+000
          2.000000000000e+000 0.000000000000e+000 0.000000000000e+000
          2.000000000000e+000 2.500000000000e+000 0.000000000000e+000
          0.000000000000e+000 2.500000000000e+000 0.000000000000e+000
          2.000000000000e+000 5.000000000000e+000 0.000000000000e+000
          0.000000000000e+000 5.000000000000e+000 0.000000000000e+000
          2.000000000000e+000 7.500000000000e+000 0.000000000000e+000
          0.000000000000e+000 7.500000000000e+000 0.000000000000e+000
          2.000000000000e+000 1.000000000000e+001 0.000000000000e+000
          0.000000000000e+000 1.000000000000e+001 0.000000000000e+000
          2.000000000000e+000 1.250000000000e+001 0.000000000000e+000
          0.000000000000e+000 1.250000000000e+001 0.000000000000e+000
          2.000000000000e+000 1.500000000000e+001 0.000000000000e+000
          0.000000000000e+000 1.500000000000e+001 0.000000000000e+000
          2.000000000000e+000 1.750000000000e+001 0.000000000000e+000
          0.000000000000e+000 1.750000000000e+001 0.000000000000e+000
          2.000000000000e+000 2.000000000000e+001 0.000000000000e+000
          0.000000000000e+000 2.000000000000e+001 0.000000000000e+000
          4.000000000000e+000 0.000000000000e+000 0.000000000000e+000
          4.000000000000e+000 2.500000000000e+000 0.000000000000e+000
          4.000000000000e+000 5.000000000000e+000 0.000000000000e+000
          4.000000000000e+000 7.500000000000e+000 0.000000000000e+000
          4.000000000000e+000 1.000000000000e+001 0.000000000000e+000
          4.000000000000e+000 1.250000000000e+001 0.000000000000e+000
          4.000000000000e+000 1.500000000000e+001 0.000000000000e+000
          4.000000000000e+000 1.750000000000e+001 0.000000000000e+000
          4.000000000000e+000 2.000000000000e+001 0.000000000000e+000
          6.000000000000e+000 0.000000000000e+000 0.000000000000e+000
          6.000000000000e+000 2.500000000000e+000 0.000000000000e+000
          6.000000000000e+000 5.000000000000e+000 0.000000000000e+000
          6.000000000000e+000 7.500000000000e+000 0.000000000000e+000
          6.000000000000e+000 1.000000000000e+001 0.000000000000e+000
          6.000000000000e+000 1.250000000000e+001 0.000000000000e+000
          6.000000000000e+000 1.500000000000e+001 0.000000000000e+000
          6.000000000000e+000 1.750000000000e+001 0.000000000000e+000
          6.000000000000e+000 2.000000000000e+001 0.000000000000e+000
          8.000000000000e+000 0.000000000000e+000 0.000000000000e+000
          8.000000000000e+000 2.500000000000e+000 0.000000000000e+000
          8.000000000000e+000 5.000000000000e+000 0.000000000000e+000
          8.000000000000e+000 7.500000000000e+000 0.000000000000e+000
          8.000000000000e+000 1.000000000000e+001 0.000000000000e+000
          8.000000000000e+000 1.250000000000e+001 0.000000000000e+000
          8.000000000000e+000 1.500000000000e+001 0.000000000000e+000
          8.000000000000e+000 1.750000000000e+001 0.000000000000e+000
          8.000000000000e+000 2.000000000000e+001 0.000000000000e+000
          1.000000000000e+001 0.000000000000e+000 0.000000000000e+000
          1.000000000000e+001 2.500000000000e+000 0.000000000000e+000
          1.000000000000e+001 5.000000000000e+000 0.000000000000e+000
          1.000000000000e+001 7.500000000000e+000 0.000000000000e+000
          1.000000000000e+001 1.000000000000e+001 0.000000000000e+000
          1.000000000000e+001 1.250000000000e+001 0.000000000000e+000
          1.000000000000e+001 1.500000000000e+001 0.000000000000e+000
          1.000000000000e+001 1.750000000000e+001 0.000000000000e+000
          1.000000000000e+001 2.000000000000e+001 0.000000000000e+000
          1.200000000000e+001 0.000000000000e+000 0.000000000000e+000
          1.200000000000e+001 2.500000000000e+000 0.000000000000e+000
          1.200000000000e+001 5.000000000000e+000 0.000000000000e+000
          1.200000000000e+001 7.500000000000e+000 0.000000000000e+000
          1.200000000000e+001 1.000000000000e+001 0.000000000000e+000
          1.200000000000e+001 1.250000000000e+001 0.000000000000e+000
          1.200000000000e+001 1.500000000000e+001 0.000000000000e+000
          1.200000000000e+001 1.750000000000e+001 0.000000000000e+000
          1.200000000000e+001 2.000000000000e+001 0.000000000000e+000
          1.400000000000e+001 0.000000000000e+000 0.000000000000e+000
          1.400000000000e+001 2.500000000000e+000 0.000000000000e+000
          1.400000000000e+001 5.000000000000e+000 0.000000000000e+000
          1.400000000000e+001 7.500000000000e+000 0.000000000000e+000
          1.400000000000e+001 1.000000000000e+001 0.000000000000e+000
          1.400000000000e+001 1.250000000000e+001 0.000000000000e+000
          1.400000000000e+001 1.500000000000e+001 0.000000000000e+000
          1.400000000000e+001 1.750000000000e+001 0.000000000000e+000
          1.400000000000e+001 2.000000000000e+001 0.000000000000e+000
          1.600000000000e+001 0.000000000000e+000 0.000000000000e+000
          1.600000000000e+001 2.500000000000e+000 0.000000000000e+000
          1.600000000000e+001 5.000000000000e+000 0.000000000000e+000
          1.600000000000e+001 7.500000000000e+000 0.000000000000e+000
          1.600000000000e+001 1.000000000000e+001 0.000000000000e+000
          1.600000000000e+001 1.250000000000e+001 0.000000000000e+000
          1.600000000000e+001 1.500000000000e+001 0.000000000000e+000
          1.600000000000e+001 1.750000000000e+001 0.000000000000e+000
          1.600000000000e+001 2.000000000000e+001 0.000000000000e+000
          1.800000000000e+001 0.000000000000e+000 0.000000000000e+000
          1.800000000000e+001 2.500000000000e+000 0.000000000000e+000
          1.800000000000e+001 5.000000000000e+000 0.000000000000e+000
          1.800000000000e+001 7.500000000000e+000 0.000000000000e+000
          1.800000000000e+001 1.000000000000e+001 0.000000000000e+000
          1.800000000000e+001 1.250000000000e+001 0.000000000000e+000
          1.800000000000e+001 1.500000000000e+001 0.000000000000e+000
          1.800000000000e+001 1.750000000000e+001 0.000000000000e+000
          1.800000000000e+001 2.000000000000e+001 0.000000000000e+000
          2.000000000000e+001 0.000000000000e+000 0.000000000000e+000
          2.000000000000e+001 2.500000000000e+000 0.000000000000e+000
          2.000000000000e+001 5.000000000000e+000 0.000000000000e+000
          2.000000000000e+001 7.500000000000e+000 0.000000000000e+000
          2.000000000000e+001 1.000000000000e+001 0.000000000000e+000
          2.000000000000e+001 1.250000000000e+001 0.000000000000e+000
          2.000000000000e+001 1.500000000000e+001 0.000000000000e+000
          2.000000000000e+001 1.750000000000e+001 0.000000000000e+000
          2.000000000000e+001 2.000000000000e+001 0.000000000000e+000
          2.200000000000e+001 0.000000000000e+000 0.000000000000e+000
          2.200000000000e+001 2.500000000000e+000 0.000000000000e+000
          2.200000000000e+001 5.000000000000e+000 0.000000000000e+000
          2.200000000000e+001 7.500000000000e+000 0.000000000000e+000
          2.200000000000e+001 1.000000000000e+001 0.000000000000e+000
          2.200000000000e+001 1.250000000000e+001 0.000000000000e+000
          2.200000000000e+001 1.500000000000e+001 0.000000000000e+000
          2.200000000000e+001 1.750000000000e+001 0.000000000000e+000
          2.200000000000e+001 2.000000000000e+001 0.000000000000e+000
          2.400000000000e+001 0.000000000000e+000 0.000000000000e+000
          2.400000000000e+001 2.500000000000e+000 0.000000000000e+000
          2.400000000000e+001 5.000000000000e+000 0.000000000000e+000
          2.400000000000e+001 7.500000000000e+000 0.000000000000e+000
          2.400000000000e+001 1.000000000000e+001 0.000000000000e+000
          2.400000000000e+001 1.250000000000e+001 0.000000000000e+000
          2.400000000000e+001 1.500000000000e+001 0.000000000000e+000
          2.400000000000e+001 1.750000000000e+001 0.000000000000e+000
          2.400000000000e+001 2.000000000000e+001 0.000000000000e+000
          2.600000000000e+001 0.000000000000e+000 0.000000000000e+000
          2.600000000000e+001 2.500000000000e+000 0.000000000000e+000
          2.600000000000e+001 5.000000000000e+000 0.000000000000e+000
          2.600000000000e+001 7.500000000000e+000 0.000000000000e+000
          2.600000000000e+001 1.000000000000e+001 0.000000000000e+000
          2.600000000000e+001 1.250000000000e+001 0.000000000000e+000
          2.600000000000e+001 1.500000000000e+001 0.000000000000e+000
          2.600000000000e+001 1.750000000000e+001 0.000000000000e+000
          2.600000000000e+001 2.000000000000e+001 0.000000000000e+000
          2.800000000000e+001 0.000000000000e+000 0.000000000000e+000
          2.800000000000e+001 2.500000000000e+000 0.000000000000e+000
          2.800000000000e+001 5.000000000000e+000 0.000000000000e+000
          2.800000000000e+001 7.500000000000e+000 0.000000000000e+000
          2.800000000000e+001 1.000000000000e+001 0.000000000000e+000
          2.800000000000e+001 1.250000000000e+001 0.000000000000e+000
          2.800000000000e+001 1.500000000000e+001 0.000000000000e+000
          2.800000000000e+001 1.750000000000e+001 0.000000000000e+000
          2.800000000000e+001 2.000000000000e+001 0.000000000000e+000
          3.000000000000e+001 0.000000000000e+000 0.000000000000e+000
          3.000000000000e+001 2.500000000000e+000 0.000000000000e+000
          3.000000000000e+001 5.000000000000e+000 0.000000000000e+000
          3.000000000000e+001 7.500000000000e+000 0.000000000000e+000
[...]
      <PointData Scalars="CAPILLARY_PRESSURE">
        <DataArray type="Float64" Name="CAPILLARY_PRESSURE" format="ascii">
          3.743946695949e+005 3.725143835011e+005 3.725143835010e+005 3.743946695949e+005 3.725143835011e+005 3.743946695949e+005 3.725143835010e+005 3.743946695949e+005 3.725143835011e+005 3.743946695949e+005 3.725143835010e+005 3.743946695949e+005 3.725143835011e+005 3.743946695949e+005 3.725143835010e+005 3.743946695949e+005 3.725143835010e+005 3.743946695949e+005 3.706260295036e+005 3.706260295036e+005 3.706260295036e+005 3.706260295036e+005 3.706260295036e+005 3.706260295036e+005 3.706260295036e+005 3.706260295036e+005 3.706260295036e+005 3.687291742505e+005 3.687291742506e+005 3.687291742505e+005 3.687291742505e+005 3.687291742505e+005 3.687291742506e+005 3.687291742506e+005 3.687291742506e+005 3.687291742505e+005 3.668234410537e+005 3.668234410537e+005 3.668234410537e+005 3.668234410537e+005 3.668234410537e+005 3.668234410537e+005 3.668234410537e+005 3.668234410537e+005 3.668234410537e+005 3.649084624612e+005 3.649084624611e+005 3.649084624611e+005 3.649084624611e+005 3.649084624612e+005 3.649084624612e+005 3.649084624611e+005 3.649084624611e+005 3.649084624611e+005 3.629838579402e+005 3.629838579403e+005 3.629838579403e+005 3.629838579402e+005 3.629838579402e+005 3.629838579402e+005 3.629838579402e+005 3.629838579402e+005 3.629838579403e+005 3.610492268595e+005 3.610492268595e+005 3.610492268595e+005 3.610492268596e+005 3.610492268595e+005 3.610492268595e+005 3.610492268595e+005 3.610492268595e+005 3.610492268595e+005 3.591041467606e+005 3.591041467605e+005 3.591041467606e+005 3.591041467605e+005 3.591041467606e+005 3.591041467605e+005 3.591041467606e+005 3.591041467606e+005 3.591041467606e+005 3.571481727609e+005 3.571481727609e+005 3.571481727609e+005 3.571481727609e+005 3.571481727609e+005 3.571481727609e+005 3.571481727609e+005 3.571481727609e+005 3.571481727609e+005 3.551808378312e+005 3.551808378313e+005 3.551808378312e+005 3.551808378312e+005 3.551808378313e+005 3.551808378312e+005 3.551808378312e+005 3.551808378312e+005 3.551808378312e+005 3.532016527889e+005 3.532016527889e+005 3.532016527889e+005 3.532016527889e+005 3.532016527889e+005 3.532016527889e+005 3.532016527889e+005 3.532016527889e+005 3.532016527889e+005 3.512101058537e+005 3.512101058537e+005 3.512101058536e+005 3.512101058537e+005 3.512101058537e+005 3.512101058537e+005 3.512101058537e+005 3.512101058537e+005 3.512101058537e+005 3.492056620846e+005 3.492056620847e+005 3.492056620846e+005 3.492056620847e+005 3.492056620846e+005 3.492056620847e+005 3.492056620846e+005 3.492056620847e+005 3.492056620847e+005 3.471877626299e+005 3.471877626299e+005 3.471877626299e+005 3.471877626300e+005 3.471877626299e+005 3.471877626299e+005 3.471877626299e+005 3.471877626299e+005 3.471877626299e+005 3.451558237774e+005 3.451558237774e+005 3.451558237774e+005 3.451558237774e+005 3.451558237774e+005 3.451558237774e+005 3.451558237774e+005 3.451558237774e+005 3.451558237774e+005 3.431092358356e+005 3.431092358355e+005 3.431092358356e+005 3.431092358356e+005 3.431092358356e+005 3.431092358356e+005 3.431092358356e+005 3.431092358356e+005 3.431092358356e+005 3.410473618805e+005 3.410473618805e+005 3.410473618805e+005 3.410473618805e+005 3.410473618805e+005 3.410473618805e+005 3.410473618805e+005 3.410473618805e+005 3.410473618805e+005 3.389695363933e+005 3.389695363933e+005 3.389695363933e+005 3.389695363933e+005 3.389695363933e+005 3.389695363933e+005 3.389695363933e+005 3.389695363933e+005 3.389695363933e+005 3.368750637969e+005 3.368750637970e+005 3.368750637970e+005 3.368750637970e+005 3.368750637969e+005 3.368750637970e+005 3.368750637969e+005 3.368750637969e+005 3.368750637970e+005 3.347632168885e+005 3.347632168885e+005 3.347632168885e+005 3.347632168885e+005 3.347632168885e+005 3.347632168885e+005 3.347632168885e+005 3.347632168885e+005 3.347632168885e+005 3.326332351577e+005 3.326332351577e+005 3.326332351577e+005 3.326332351577e+005 3.326332351577e+005 3.326332351577e+005 3.326332351577e+005 3.326332351577e+005 3.326332351577e+005 3.304843229769e+005 3.304843229768e+005 3.304843229768e+005 3.304843229768e+005 3.304843229768e+005 3.304843229768e+005 3.304843229768e+005 3.304843229768e+005 3.304843229768e+005 3.283156476452e+005 3.283156476453e+005 3.283156476453e+005 3.283156476453e+005 3.283156476453e+005 3.283156476453e+005 3.283156476453e+005 3.283156476453e+005 3.283156476453e+005 3.261263372716e+005 3.261263372716e+005 3.261263372716e+005 3.261263372716e+005 3.261263372716e+005 3.261263372716e+005 3.261263372716e+005 3.261263372716e+005 3.261263372716e+005 3.239154784720e+005 3.239154784719e+005 3.239154784719e+005 3.239154784719e+005 3.239154784720e+005 3.239154784719e+005 3.239154784719e+005 3.239154784719e+005 3.239154784719e+005 3.216821138657e+005 3.216821138657e+005 3.216821138657e+005 3.216821138656e+005 3.216821138657e+005 3.216821138657e+005 3.216821138657e+005 3.216821138657e+005 3.216821138657e+005 3.194252393437e+005 3.194252393438e+005 3.194252393438e+005 3.194252393438e+005 3.194252393438e+005 3.194252393438e+005 3.194252393438e+005 3.194252393438e+005 3.194252393438e+005 3.171438010855e+005 3.171438010855e+005 3.171438010855e+005 3.171438010855e+005 3.171438010855e+005 3.171438010855e+005 3.171438010855e+005 3.171438010855e+005 3.171438010855e+005 3.148366922946e+005 3.148366922946e+005 3.148366922946e+005 3.148366922946e+005 3.148366922947e+005 3.148366922946e+005 3.148366922946e+005 3.148366922946e+005 3.148366922946e+005 3.125027496241e+005 3.125027496240e+005 3.125027496241e+005 3.125027496240e+005 3.125027496240e+005 3.125027496240e+005 3.125027496241e+005 3.125027496241e+005 3.125027496240e+005 3.101407492519e+005 3.101407492519e+005 3.101407492519e+005 3.101407492519e+005 3.101407492519e+005 3.101407492519e+005 3.101407492519e+005 3.101407492519e+005 3.101407492519e+005 3.077494025691e+005 3.077494025690e+005 3.077494025690e+005 3.077494025690e+005 3.077494025690e+005 3.077494025690e+005 3.077494025690e+005 3.077494025690e+005 3.077494025690e+005 3.053273514309e+005 3.053273514309e+005 3.053273514308e+005 3.053273514309e+005 3.053273514308e+005 3.053273514309e+005 3.053273514308e+005 3.053273514309e+005 3.053273514309e+005 3.028731629202e+005 3.028731629202e+005 3.028731629202e+005 3.028731629202e+005 3.028731629202e+005 3.028731629202e+005 3.028731629202e+005 3.028731629202e+005 3.028731629202e+005 3.003853235597e+005 3.003853235597e+005 3.003853235598e+005 3.003853235597e+005 3.003853235597e+005 3.003853235597e+005 3.003853235597e+005 3.003853235597e+005 3.003853235597e+005 2.978622329038e+005 2.978622329039e+005 2.978622329038e+005 2.978622329038e+005 2.978622329038e+005 2.978622329038e+005 2.978622329039e+005 2.978622329039e+005 2.978622329039e+005 2.953021964273e+005 2.953021964273e+005 2.953021964273e+005 2.953021964273e+005 2.953021964273e+005 2.953021964273e+005 2.953021964273e+005 2.953021964273e+005 2.953021964274e+005 2.927034176183e+005 2.927034176182e+005 2.927034176183e+005 2.927034176182e+005 2.927034176183e+005 2.927034176182e+005 2.927034176182e+005 2.927034176183e+005 2.927034176183e+005 2.900639891635e+005 2.900639891635e+005 2.900639891635e+005 2.900639891635e+005 2.900639891635e+005 2.900639891635e+005 2.900639891635e+005 2.900639891636e+005 2.900639891635e+005 2.873818831007e+005 2.873818831007e+005 2.873818831007e+005 2.873818831007e+005 2.873818831008e+005 2.873818831007e+005 2.873818831008e+005 2.873818831007e+005 2.873818831007e+005 2.846549397858e+005 2.846549397858e+005 2.846549397858e+005 2.846549397858e+005 2.846549397858e+005 2.846549397857e+005 2.846549397858e+005 2.846549397857e+005 2.846549397858e+005 2.818808555010e+005 2.818808555010e+005 2.818808555010e+005 2.818808555010e+005 2.818808555010e+005 2.818808555010e+005 2.818808555010e+005 2.818808555010e+005 2.818808555010e+005 2.790571684970e+005 2.790571684970e+005 2.790571684970e+005 2.790571684970e+005 2.790571684970e+005 2.790571684970e+005 2.790571684970e+005 2.790571684970e+005 2.790571684970e+005 2.761812432218e+005 2.761812432218e+005 2.761812432218e+005 2.761812432218e+005 2.761812432218e+005 2.761812432218e+005 2.761812432218e+005 2.761812432218e+005 2.761812432218e+005 2.732502524478e+005 2.732502524478e+005 2.732502524478e+005 2.732502524478e+005 2.732502524478e+005 2.732502524478e+005 2.732502524478e+005 2.732502524478e+005 2.732502524478e+005 2.702611569461e+005 2.702611569461e+005 2.702611569461e+005 2.702611569461e+005 2.702611569461e+005 2.702611569461e+005 2.702611569460e+005 2.702611569461e+005 2.702611569460e+005 2.672106822926e+005 2.672106822926e+005 2.672106822926e+005 2.672106822926e+005 2.672106822926e+005 2.672106822926e+005 2.672106822926e+005 2.672106822926e+005 2.672106822927e+005 2.640952923023e+005 2.640952923023e+005 2.640952923022e+005 2.640952923022e+005 2.640952923023e+005 2.640952923023e+005 2.640952923023e+005 2.640952923023e+005 2.640952923023e+005 2.609111584796e+005 2.609111584796e+005 2.609111584796e+005 2.609111584796e+005 2.609111584796e+005 2.609111584797e+005 2.609111584796e+005 2.609111584797e+005 2.609111584796e+005 2.576541247454e+005 2.576541247454e+005 2.576541247454e+005 2.576541247454e+005 2.576541247454e+005 2.576541247454e+005 2.576541247454e+005 2.576541247454e+005 2.576541247454e+005 2.543196665250e+005 2.543196665249e+005 2.543196665249e+005 2.543196665249e+005 2.543196665249e+005 2.543196665249e+005 2.543196665249e+005 2.543196665249e+005 2.543196665249e+005 2.509028430760e+005 2.509028430760e+005 2.509028430760e+005 2.509028430760e+005 2.509028430760e+005 2.509028430760e+005 2.509028430760e+005 2.509028430760e+005 2.509028430760e+005 2.473982416564e+005 2.473982416565e+005 2.473982416564e+005 2.473982416564e+005 2.473982416564e+005 2.473982416564e+005 2.473982416564e+005 2.473982416564e+005 2.473982416564e+005 2.437999117823e+005 2.437999117823e+005 2.437999117823e+005 2.437999117822e+005 2.437999117823e+005 2.437999117822e+005 2.437999117823e+005 2.437999117823e+005 2.437999117823e+005 2.401012873645e+005 2.401012873646e+005 2.401012873646e+005 2.401012873645e+005 2.401012873645e+005 2.401012873645e+005 2.401012873645e+005 2.401012873646e+005 2.401012873645e+005 2.362950939078e+005 2.362950939078e+005 2.362950939078e+005 2.362950939078e+005 2.362950939078e+005 2.362950939078e+005 2.362950939078e+005 2.362950939078e+005 2.362950939078e+005 2.323732371465e+005 2.323732371465e+005 2.323732371465e+005 2.323732371465e+005 2.323732371465e+005 2.323732371465e+005 2.323732371465e+005 2.323732371465e+005 2.323732371465e+005 2.283266684104e+005 2.283266684104e+005 2.283266684104e+005 2.283266684104e+005 2.283266684104e+005 2.283266684104e+005 2.283266684104e+005 2.283266684104e+005 2.283266684104e+005 2.241452205357e+005 2.241452205356e+005 2.241452205356e+005 2.241452205357e+005 2.241452205356e+005 2.241452205356e+005 2.241452205356e+005 2.241452205356e+005 2.241452205356e+005 2.198174061127e+005 2.198174061126e+005 2.198174061126e+005 2.198174061126e+005 2.198174061126e+005 2.198174061126e+005 2.198174061126e+005 2.198174061126e+005 2.198174061126e+005 2.153301670397e+005 2.153301670397e+005 2.153301670397e+005 2.153301670397e+005 2.153301670397e+005 2.153301670396e+005 2.153301670397e+005 2.153301670397e+005 2.153301670397e+005 2.106685603764e+005 2.106685603764e+005 2.106685603763e+005 2.106685603763e+005 2.106685603764e+005 2.106685603763e+005 2.106685603763e+005 2.106685603763e+005 2.106685603763e+005 2.058153597909e+005 2.058153597909e+005 2.058153597908e+005 2.058153597908e+005 2.058153597908e+005 2.058153597908e+005 2.058153597908e+005 2.058153597908e+005 2.058153597908e+005 2.007505435877e+005 2.007505435877e+005 2.007505435877e+005 2.007505435877e+005 2.007505435876e+005 2.007505435876e+005 2.007505435876e+005 2.007505435876e+005 2.007505435876e+005 1.954506279246e+005 1.954506279245e+005 1.954506279245e+005 1.954506279245e+005 1.954506279245e+005 1.954506279245e+005 1.954506279244e+005 1.954506279244e+005 1.954506279244e+005 1.898877849567e+005 1.898877849567e+005 1.898877849567e+005 1.898877849567e+005 1.898877849566e+005 1.898877849566e+005 1.898877849566e+005 1.898877849566e+005 1.898877849566e+005 1.840286561128e+005 1.840286561127e+005 1.840286561128e+005 1.840286561127e+005 1.840286561127e+005 1.840286561126e+005 1.840286561126e+005 1.840286561126e+005 1.840286561126e+005 1.778327231816e+005 1.778327231816e+005 1.778327231816e+005 1.778327231815e+005 1.778327231815e+005 1.778327231814e+005 1.778327231814e+005 1.778327231814e+005 1.778327231814e+005 1.712500211058e+005 1.712500211059e+005 1.712500211059e+005 1.712500211057e+005 1.712500211057e+005 1.712500211057e+005 1.712500211057e+005 1.712500211057e+005 1.712500211056e+005 1.642178413167e+005 1.642178413167e+005 1.642178413166e+005 1.642178413166e+005 1.642178413165e+005 1.642178413165e+005 1.642178413164e+005 1.642178413164e+005 1.642178413163e+005 1.566558334770e+005 1.566558334769e+005 1.566558334769e+005 1.566558334768e+005 1.566558334767e+005 1.566558334766e+005 1.566558334765e+005 1.566558334764e+005 1.566558334764e+005 1.484584619764e+005 1.484584619764e+005 1.484584619764e+005 1.484584619761e+005 1.484584619759e+005 1.484584619758e+005 1.484584619757e+005 1.484584619757e+005 1.484584619756e+005 1.394828765812e+005 1.394828765811e+005 1.394828765809e+005 1.394828765807e+005 1.394828765803e+005 1.394828765802e+005 1.394828765801e+005 1.394828765800e+005 1.394828765799e+005 1.295283510651e+005 1.295283510649e+005 1.295283510644e+005 1.295283510641e+005 1.295283510637e+005 1.295283510633e+005 1.295283510631e+005 1.295283510630e+005 1.295283510629e+005 1.182990789473e+005 1.182990789470e+005 1.182990789464e+005 1.182990789453e+005 1.182990789448e+005 1.182990789440e+005 1.182990789438e+005 1.182990789435e+005 1.182990789435e+005 1.053310394285e+005 1.053310394283e+005 1.053310394267e+005 1.053310394251e+005 1.053310394235e+005 1.053310394228e+005 1.053310394217e+005 1.053310394215e+005 1.053310394211e+005 8.983176142439e+004 8.983176142142e+004 8.983176141977e+004 8.983176141664e+004 8.983176141474e+004 8.983176141243e+004 8.983176141106e+004 8.983176140858e+004 8.983176140796e+004 7.027548903304e+004 7.027548904005e+004 7.027548903004e+004 7.027548902665e+004 7.027548901742e+004 7.027548901709e+004 7.027548901265e+004 7.027548901351e+004 7.027548901532e+004 4.320665280412e+004 4.320665276335e+004 4.320665280984e+004 4.320665279884e+004 4.320665279581e+004 4.320665277105e+004 4.320665278391e+004 4.320665277015e+004 4.320665276638e+004 1.161183507517e+003 1.161183567802e+003 1.161183472610e+003 1.161183523901e+003 1.161183474618e+003 1.161183550444e+003 1.161183431431e+003 1.161183488001e+003 1.161183447858e+003 -4.904699929415e+004 -4.904699663076e+004 -4.904699541522e+004 -4.904699681530e+004 -4.904699709820e+004 -4.904699759820e+004 -4.904699770338e+004 -4.904699802521e+004 -4.904699582018e+004 -9.923804100257e+004 -9.923804002906e+004 -9.923803885274e+004 -9.923803982584e+004 -9.923804051684e+004 -9.923804048663e+004 -9.923804074873e+004 -9.923803950543e+004 -9.923803946394e+004 -1.494104574476e+005 -1.494104555536e+005 -1.494104544458e+005 -1.494104548813e+005 -1.494104545017e+005 -1.494104531073e+005 -1.494104549332e+005 -1.494104543910e+005 -1.494104538647e+005 -1.995640749318e+005 -1.995640720871e+005 -1.995640714490e+005 -1.995640696738e+005 -1.995640698377e+005 -1.995640696344e+005 -1.995640699452e+005 -1.995640686470e+005 -1.995640679317e+005 -2.496994257622e+005 -2.496994248399e+005 -2.496994238393e+005 -2.496994225173e+005 -2.496994219664e+005 -2.496994211275e+005 -2.496994212708e+005 -2.496994198989e+005 -2.496994204282e+005 -2.998172627730e+005 -2.998172626308e+005 -2.998172604841e+005 -2.998172618122e+005 -2.998172595468e+005 -2.998172591480e+005 -2.998172588949e+005 -2.998172577692e+005 -2.998172566811e+005 -3.499184126371e+005 -3.499184116516e+005 -3.499184126023e+005 -3.499184103488e+005 -3.499184100495e+005 -3.499184089210e+005 -3.499184087131e+005 -3.499184085319e+005 -3.499184074628e+005 -4.000036383413e+005 -4.000036399234e+005 -4.000036392972e+005 -4.000036391346e+005 -4.000036377213e+005 -4.000036373087e+005 -4.000036364675e+005 -4.000036350825e+005 -4.000036344106e+005 -4.500736612110e+005 -4.500736630931e+005 -4.500736638314e+005 -4.500736623795e+005 -4.500736607811e+005 -4.500736608969e+005 -4.500736593359e+005 -4.500736579938e+005 -4.500736578397e+005 -5.001291255174e+005 -5.001291278551e+005 -5.001291277141e+005 -5.001291276881e+005 -5.001291267262e+005 -5.001291249609e+005 -5.001291237794e+005 -5.001291234894e+005 -5.001291228153e+005 -5.501706231556e+005 -5.501706212142e+005 -5.501706220806e+005 -5.501706220205e+005 -5.501706217126e+005 -5.501706191591e+005 -5.501706181422e+005 -5.501706189450e+005 -5.501706186166e+005 -6.001986947558e+005 -6.001986941908e+005 -6.001986939565e+005 -6.001986938640e+005 -6.001986929002e+005 -6.001986906680e+005 -6.001986913176e+005 -6.001986906893e+005 -6.001986910215e+005 -6.502138632648e+005 -6.502138624872e+005 -6.502138624410e+005 -6.502138610147e+005 -6.502138608657e+005 -6.502138598252e+005 -6.502138595498e+005 -6.502138589618e+005 -6.502138596712e+005 -7.002166271335e+005 -7.002166262332e+005 -7.002166266046e+005 -7.002166262392e+005 -7.002166251069e+005 -7.002166249903e+005 -7.002166243719e+005 -7.002166243037e+005 -7.002166231106e+005 -7.502074750036e+005 -7.502074756748e+005 -7.502074764509e+005 -7.502074759916e+005 -7.502074752573e+005 -7.502074755599e+005 -7.502074749116e+005 -7.502074749467e+005 -7.502074746740e+005 -8.001868947088e+005 -8.001868954793e+005 -8.001868960234e+005 -8.001868954399e+005 -8.001868953958e+005 -8.001868956194e+005 -8.001868948047e+005 -8.001868953365e+005 -8.001868954065e+005 -8.501553697585e+005 -8.501553698726e+005 -8.501553702163e+005 -8.501553703428e+005 -8.501553692009e+005 -8.501553690414e+005 -8.501553693464e+005 -8.501553696119e+005 -8.501553694552e+005 -9.001133841335e+005 -9.001133849557e+005 -9.001133855876e+005 -9.001133855153e+005 -9.001133852119e+005 -9.001133845343e+005 -9.001133845341e+005 -9.001133847046e+005 -9.001133848169e+005 -9.500614308224e+005 -9.500614312541e+005 -9.500614315058e+005 -9.500614313560e+005 -9.500614314496e+005 -9.500614309909e+005 -9.500614309905e+005 -9.500614311544e+005 -9.500614309966e+005 -1.000000000000e+006 -1.000000000000e+006 -1.000000000000e+006 -1.000000000000e+006 -1.000000000000e+006 -1.000000000000e+006 -1.000000000000e+006 -1.000000000000e+006 -1.000000000000e+006 
        </DataArray>
        <DataArray type="Float64" Name="NONWET_PRESSURE" format="ascii">