<?xml version="1.0"?>
<VTKFile type="UnstructuredGrid" version="0.1" byte_order="LittleEndian">
  <UnstructuredGrid>
    <Piece NumberOfPoints="909" NumberOfCells="800">
      <Points>
        <DataArray type="Float64" NumberOfComponents="3" format="ascii">
          0.000000000000e+000 0.000000000000e+000 0.000000000000e+000
          2.000000000000e+000 0.000000000000e+000 0.000000000000e+000
          2.000000000000e+000 2.500000000000e+000 0.000000000000e+000
          0.000000000000e+000 2.500000000000e+000 0.000000000000e+000
          2.000000000000e+000 5.000000000000e+000 0.000000000000e+000
          0.000000000000e+000 5.000000000000e+000 0.000000000000e+000
          2.000000000000e+000 7.500000000000e+000 0.000000000000e+000
          0.000000000000e+000 7.500000000000e+000 0.000000000000e+000
          2.000000000000e+000 1.000000000000e+001 0.000000000000e+000
          0.000000000000e+000 1.000000000000e+001 0.000000000000e+000
          2.000000000000e+000 1.250000000000e+001 0.000000000000e+000
          0.000000000000e+000 1.250000000000e+001 0.000000000000e+000
          2.000000000000e+000 1.500000000000e+001 0.000000000000e+000
          0.000000000000e+000 1.500000000000e+001 0.000000000000e+000
          2.000000000000e+000 1.750000000000e+001 0.000000000000e+000
          0.000000000000e+000 1.750000000000e+001 0.000000000000e+000
          2.000000000000e+000 2.000000000000e+001 0.000000000000e+000
          0.000000000000e+000 2.000000000000e+001 0.000000000000e+000
          4.000000000000e+000 0.000000000000e+000 0.000000000000e+000
          4.000000000000e+000 2.500000000000e+000 0.000000000000e+000
          4.000000000000e+000 5.000000000000e+000 0.000000000000e+000
          4.000000000000e+000 7.500000000000e+000 0.000000000000e+000
          4.000000000000e+000 1.000000000000e+001 0.000000000000e+000
          4.000000000000e+000 1.250000000000e+001 0.000000000000e+000
          4.000000000000e+000 1.500000000000e+001 0.000000000000e+000
          4.000000000000e+000 1.750000000000e+001 0.000000000000e+000
          4.000000000000e+000 2.000000000000e+001 0.000000000000e+000
          6.000000000000e+000 0.000000000000e+000 0.000000000000e+000
          6.000000000000e+000 2.500000000000e+000 0.000000000000e+000
          6.000000000000e+000 5.000000000000e+000 0.000000000000e+000
          6.000000000000e+000 7.500000000000e+000 0.000000000000e+000
          6.000000000000e+000 1.000000000000e+001 0.000000000000e+000
          6.000000000000e+000 1.250000000000e+001 0.000000000000e+000
          6.000000000000e+000 1.500000000000e+001 0.000000000000e+000
          6.000000000000e+000 1.750000000000e+001 0.000000000000e+000
          6.000000000000e+000 2.000000000000e+001 0.000000000000e+000
          8.000000000000e+000 0.000000000000e+000 0.000000000000e+000
          8.000000000000e+000 2.500000000000e+000 0.000000000000e+000
          8.000000000000e+000 5.000000000000e+000 0.000000000000e+000
          8.000000000000e+000 7.500000000000e+000 0.000000000000e+000
          8.000000000000e+000 1.000000000000e+001 0.000000000000e+000
          8.000000000000e+000 1.250000000000e+001 0.000000000000e+000
          8.000000000000e+000 1.500000000000e+001 0.000000000000e+000
          8.000000000000e+000 1.750000000000e+001 0.000000000000e+000
          8.000000000000e+000 2.000000000000e+001 0.000000000000e+000
          1.000000000000e+001 0.000000000000e+000 0.000000000000e+000
          1.000000000000e+001 2.500000000000e+000 0.000000000000e+000
          1.000000000000e+001 5.000000000000e+000 0.000000000000e+000
          1.000000000000e+001 7.500000000000e+000 0.000000000000e+000
          1.000000000000e+001 1.000000000000e+001 0.000000000000e+000
          1.000000000000e+001 1.250000000000e+001 0.000000000000e+000
          1.000000000000e+001 1.500000000000e+001 0.000000000000e+000
          1.000000000000e+001 1.750000000000e+001 0.000000000000e+000
          1.000000000000e+001 2.000000000000e+001 0.000000000000e+000
          1.200000000000e+001 0.000000000000e+000 0.000000000000e+000
          1.200000000000e+001 2.500000000000e+000 0.000000000000e+000
          1.200000000000e+001 5.000000000000e+000 0.000000000000e+000
          1.200000000000e+001 7.500000000000e+000 0.000000000000e+000
          1.200000000000e+001 1.000000000000e+001 0.000000000000e+000
          1.200000000000e+001 1.250000000000e+001 0.000000000000e+000
          1.200000000000e+001 1.500000000000e+001 0.000000000000e+000
          1.200000000000e+001 1.750000000000e+001 0.000000000000e+000
          1.200000000000e+001 2.000000000000e+001 0.000000000000e+000
          1.400000000000e+001 0.000000000000e+000 0.000000000000e+000
          1.400000000000e+001 2.500000000000e+000 0.000000000000e+000
          1.400000000000e+001 5.000000000000e+000 0.000000000000e+000
          1.400000000000e+001 7.500000000000e+000 0.000000000000e+000
          1.400000000000e+001 1.000000000000e+001 0.000000000000e+000
          1.400000000000e+001 1.250000000000e+001 0.000000000000e+000
          1.400000000000e+001 1.500000000000e+001 0.000000000000e+000
          1.400000000000e+001 1.750000000000e+001 0.000000000000e+000
          1.400000000000e+001 2.000000000000e+001 0.000000000000e+000
          1.600000000000e+001 0.000000000000e+000 0.000000000000e+000
          1.600000000000e+001 2.500000000000e+000 0.000000000000e+000
          1.600000000000e+001 5.000000000000e+000 0.000000000000e+000
          1.600000000000e+001 7.500000000000e+000 0.000000000000e+000
          1.600000000000e+001 1.000000000000e+001 0.000000000000e+000
          1.600000000000e+001 1.250000000000e+001 0.000000000000e+000
          1.600000000000e+001 1.500000000000e+001 0.000000000000e+000
          1.600000000000e+001 1.750000000000e+001 0.000000000000e+000
          1.600000000000e+001 2.000000000000e+001 0.000000000000e+000
          1.800000000000e+001 0.000000000000e+000 0.000000000000e+000
          1.800000000000e+001 2.500000000000e+000 0.000000000000e+000
          1.800000000000e+001 5.000000000000e+000 0.000000000000e+000
          1.800000000000e+001 7.500000000000e+000 0.000000000000e+000
          1.800000000000e+001 1.000000000000e+001 0.000000000000e+000
          1.800000000000e+001 1.250000000000e+001 0.000000000000e+000
          1.800000000000e+001 1.500000000000e+001 0.000000000000e+000
          1.800000000000e+001 1.750000000000e+001 0.000000000000e+000
          1.800000000000e+001 2.000000000000e+001 0.000000000000e+000
          2.000000000000e+001 0.000000000000e+000 0.000000000000e+000
          2.000000000000e+001 2.500000000000e+000 0.000000000000e+000
          2.000000000000e+001 5.000000000000e+000 0.000000000000e+000
          2.000000000000e+001 7.500000000000e+000 0.000000000000e+000
          2.000000000000e+001 1.000000000000e+001 0.000000000000e+000
          2.000000000000e+001 1.250000000000e+001 0.000000000000e+000
          2.000000000000e+001 1.500000000000e+001 0.000000000000e+000
          2.000000000000e+001 1.750000000000e+001 0.000000000000e+000
          2.000000000000e+001 2.000000000000e+001 0.000000000000e+000
          2.200000000000e+001 0.000000000000e+000 0.000000000000e+000
          2.200000000000e+001 2.500000000000e+000 0.000000000000e+000
          2.200000000000e+001 5.000000000000e+000 0.000000000000e+000
          2.200000000000e+001 7.500000000000e+000 0.000000000000e+000
          2.200000000000e+001 1.000000000000e+001 0.000000000000e+000
          2.200000000000e+001 1.250000000000e+001 0.000000000000e+000
          2.200000000000e+001 1.500000000000e+001 0.000000000000e+000
          2.200000000000e+001 1.750000000000e+001 0.000000000000e+000
          2.200000000000e+001 2.000000000000e+001 0.000000000000e+000
          2.400000000000e+001 0.000000000000e+000 0.000000000000e+000
          2.400000000000e+001 2.500000000000e+000 0.000000000000e+000
          2.400000000000e+001 5.000000000000e+000 0.000000000000e+000
          2.400000000000e+001 7.500000000000e+000 0.000000000000e+000
          2.400000000000e+001 1.000000000000e+001 0.000000000000e+000
          2.400000000000e+001 1.250000000000e+001 0.000000000000e+000
          2.400000000000e+001 1.500000000000e+001 0.000000000000e+000
          2.400000000000e+001 1.750000000000e+001 0.000000000000e+000
          2.400000000000e+001 2.000000000000e+001 0.000000000000e+000
          2.600000000000e+001 0.000000000000e+000 0.000000000000e+000
          2.600000000000e+001 2.500000000000e+000 0.000000000000e+000
          2.600000000000e+001 5.000000000000e+000 0.000000000000e+000
          2.600000000000e+001 7.500000000000e+000 0.000000000000e+000
          2.600000000000e+001 1.000000000000e+001 0.000000000000e+000
          2.600000000000e+001 1.250000000000e+001 0.000000000000e+000
          2.600000000000e+001 1.500000000000e+001 0.000000000000e+000
          2.600000000000e+001 1.750000000000e+001 0.000000000000e+000
          2.600000000000e+001 2.000000000000e+001 0.000000000000e+000
          2.800000000000e+001 0.000000000000e+000 0.000000000000e+000
          2.800000000000e+001 2.500000000000e+000 0.000000000000e+000
          2.800000000000e+001 5.000000000000e+000 0.000000000000e+000
          2.800000000000e+001 7.500000000000e+000 0.000000000000e+000
          2.800000000000e+001 1.000000000000e+001 0.000000000000e+000
          2.800000000000e+001 1.250000000000e+001 0.000000000000e+000
          2.800000000000e+001 1.500000000000e+001 0.000000000000e+000
          2.800000000000e+001 1.750000000000e+001 0.000000000000e+000
          2.800000000000e+001 2.000000000000e+001 0.000000000000e+000
          3.000000000000e+001 0.000000000000e+000 0.000000000000e+000
          3.000000000000e+001 2.500000000000e+000 0.000000000000e+000
          3.000000000000e+001 5.000000000000e+000 0.000000000000e+000
          3.000000000000e+001 7.500000000000e+000 0.000000000000e+000
[...]
      <PointData Scalars="CAPILLARY_PRESSURE">
        <DataArray type="Float64" Name="CAPILLARY_PRESSURE" format="ascii">
          2.496076626625e+005 2.460643219521e+005 2.460643219521e+005 2.496076626625e+005 2.460643219521e+005 2.496076626625e+005 2.460643219521e+005 2.496076626625e+005 2.460643219521e+005 2.496076626625e+005 2.460643219521e+005 2.496076626625e+005 2.460643219521e+005 2.496076626625e+005 2.460643219521e+005 2.496076626625e+005 2.460643219521e+005 2.496076626625e+005 2.425078421044e+005 2.425078421044e+005 2.425078421044e+005 2.425078421044e+005 2.425078421044e+005 2.425078421044e+005 2.425078421044e+005 2.425078421044e+005 2.425078421044e+005 2.389361491168e+005 2.389361491168e+005 2.389361491168e+005 2.389361491168e+005 2.389361491168e+005 2.389361491168e+005 2.389361491168e+005 2.389361491168e+005 2.389361491168e+005 2.353467867505e+005 2.353467867505e+005 2.353467867505e+005 2.353467867505e+005 2.353467867505e+005 2.353467867505e+005 2.353467867505e+005 2.353467867505e+005 2.353467867505e+005 2.317370749649e+005 2.317370749649e+005 2.317370749649e+005 2.317370749649e+005 2.317370749649e+005 2.317370749649e+005 2.317370749649e+005 2.317370749649e+005 2.317370749649e+005 2.281041187615e+005 2.281041187615e+005 2.281041187615e+005 2.281041187615e+005 2.281041187615e+005 2.281041187615e+005 2.281041187615e+005 2.281041187615e+005 2.281041187615e+005 2.244447737210e+005 2.244447737210e+005 2.244447737210e+005 2.244447737210e+005 2.244447737210e+005 2.244447737210e+005 2.244447737210e+005 2.244447737210e+005 2.244447737210e+005 2.207556083016e+005 2.207556083016e+005 2.207556083016e+005 2.207556083016e+005 2.207556083016e+005 2.207556083016e+005 2.207556083016e+005 2.207556083016e+005 2.207556083016e+005 2.170328683793e+005 2.170328683793e+005 2.170328683793e+005 2.170328683793e+005 2.170328683793e+005 2.170328683793e+005 2.170328683793e+005 2.170328683793e+005 2.170328683793e+005 2.132724386988e+005 2.132724386988e+005 2.132724386988e+005 2.132724386988e+005 2.132724386988e+005 2.132724386988e+005 2.132724386988e+005 2.132724386988e+005 2.132724386988e+005 2.094697969902e+005 2.094697969902e+005 2.094697969902e+005 2.094697969902e+005 2.094697969902e+005 2.094697969902e+005 2.094697969902e+005 2.094697969902e+005 2.094697969902e+005 2.056199589256e+005 2.056199589256e+005 2.056199589256e+005 2.056199589256e+005 2.056199589256e+005 2.056199589256e+005 2.056199589256e+005 2.056199589256e+005 2.056199589256e+005 2.017174120462e+005 2.017174120462e+005 2.017174120462e+005 2.017174120462e+005 2.017174120462e+005 2.017174120462e+005 2.017174120462e+005 2.017174120462e+005 2.017174120462e+005 1.977560361004e+005 1.977560361004e+005 1.977560361004e+005 1.977560361004e+005 1.977560361004e+005 1.977560361004e+005 1.977560361004e+005 1.977560361004e+005 1.977560361004e+005 1.937290070037e+005 1.937290070037e+005 1.937290070037e+005 1.937290070037e+005 1.937290070037e+005 1.937290070037e+005 1.937290070037e+005 1.937290070037e+005 1.937290070037e+005 1.896286807957e+005 1.896286807957e+005 1.896286807957e+005 1.896286807957e+005 1.896286807957e+005 1.896286807957e+005 1.896286807957e+005 1.896286807957e+005 1.896286807957e+005 1.854464525807e+005 1.854464525807e+005 1.854464525807e+005 1.854464525807e+005 1.854464525807e+005 1.854464525807e+005 1.854464525807e+005 1.854464525807e+005 1.854464525807e+005 1.811725836291e+005 1.811725836291e+005 1.811725836291e+005 1.811725836291e+005 1.811725836291e+005 1.811725836291e+005 1.811725836291e+005 1.811725836291e+005 1.811725836291e+005 1.767959874247e+005 1.767959874247e+005 1.767959874247e+005 1.767959874247e+005 1.767959874246e+005 1.767959874246e+005 1.767959874246e+005 1.767959874246e+005 1.767959874246e+005 1.723039621391e+005 1.723039621391e+005 1.723039621391e+005 1.723039621391e+005 1.723039621391e+005 1.723039621391e+005 1.723039621391e+005 1.723039621391e+005 1.723039621391e+005 1.676818522828e+005 1.676818522828e+005 1.676818522828e+005 1.676818522828e+005 1.676818522828e+005 1.676818522828e+005 1.676818522828e+005 1.676818522828e+005 1.676818522828e+005 1.629126153207e+005 1.629126153207e+005 1.629126153207e+005 1.629126153207e+005 1.629126153207e+005 1.629126153207e+005 1.629126153206e+005 1.629126153206e+005 1.629126153206e+005 1.579762585206e+005 1.579762585205e+005 1.579762585205e+005 1.579762585205e+005 1.579762585205e+005 1.579762585205e+005 1.579762585205e+005 1.579762585205e+005 1.579762585205e+005 1.528490953011e+005 1.528490953011e+005 1.528490953011e+005 1.528490953011e+005 1.528490953011e+005 1.528490953011e+005 1.528490953011e+005 1.528490953011e+005 1.528490953011e+005 1.475027455889e+005 1.475027455889e+005 1.475027455889e+005 1.475027455889e+005 1.475027455889e+005 1.475027455889e+005 1.475027455889e+005 1.475027455889e+005 1.475027455889e+005 1.419027647228e+005 1.419027647228e+005 1.419027647228e+005 1.419027647229e+005 1.419027647229e+005 1.419027647229e+005 1.419027647229e+005 1.419027647229e+005 1.419027647229e+005 1.360067234298e+005 1.360067234299e+005 1.360067234299e+005 1.360067234299e+005 1.360067234300e+005 1.360067234300e+005 1.360067234300e+005 1.360067234300e+005 1.360067234300e+005 1.297614631857e+005 1.297614631857e+005 1.297614631857e+005 1.297614631858e+005 1.297614631858e+005 1.297614631859e+005 1.297614631860e+005 1.297614631860e+005 1.297614631861e+005 1.230990736257e+005 1.230990736257e+005 1.230990736259e+005 1.230990736259e+005 1.230990736261e+005 1.230990736261e+005 1.230990736263e+005 1.230990736264e+005 1.230990736264e+005 1.159308347905e+005 1.159308347907e+005 1.159308347906e+005 1.159308347908e+005 1.159308347910e+005 1.159308347916e+005 1.159308347918e+005 1.159308347920e+005 1.159308347922e+005 1.081376526331e+005 1.081376526322e+005 1.081376526332e+005 1.081376526338e+005 1.081376526343e+005 1.081376526329e+005 1.081376526335e+005 1.081376526331e+005 1.081376526330e+005 9.955451170817e+004 9.955451171324e+004 9.955451171181e+004 9.955451171222e+004 9.955451171075e+004 9.955451171591e+004 9.955451171257e+004 9.955451171443e+004 9.955451171343e+004 8.994329287322e+004 8.994329285478e+004 8.994329285959e+004 8.994329285477e+004 8.994329286253e+004 8.994329284613e+004 8.994329285701e+004 8.994329284728e+004 8.994329285507e+004 7.894322022015e+004 7.894322026982e+004 7.894322024977e+004 7.894322027001e+004 7.894322023922e+004 7.894322028303e+004 7.894322025245e+004 7.894322028130e+004 7.894322024486e+004 6.597066127648e+004 6.597066119006e+004 6.597066126346e+004 6.597066121134e+004 6.597066125594e+004 6.597066108577e+004 6.597066110434e+004 6.597066102098e+004 6.597066111905e+004 5.001623820724e+004 5.001623823218e+004 5.001623808036e+004 5.001623808234e+004 5.001623805368e+004 5.001623855553e+004 5.001623857947e+004 5.001623867506e+004 5.001623852889e+004 2.927198370367e+004 2.927198431181e+004 2.927198440883e+004 2.927198483003e+004 2.927198455832e+004 2.927198276653e+004 2.927198245240e+004 2.927198247271e+004 2.927198233954e+004 1.592991049857e+003 1.592987151965e+003 1.592988102418e+003 1.592985817822e+003 1.592986344307e+003 1.592993251435e+003 1.592993399900e+003 1.592992834822e+003 1.592994276270e+003 -2.899950165728e+004 -2.899949469335e+004 -2.899950313673e+004 -2.899950106888e+004 -2.899949546809e+004 -2.899949043055e+004 -2.899947896134e+004 -2.899948819851e+004 -2.899948325321e+004 -5.883693397222e+004 -5.883692684365e+004 -5.883693543993e+004 -5.883693349739e+004 -5.883692750107e+004 -5.883692004184e+004 -5.883691590736e+004 -5.883690822545e+004 -5.883691212890e+004 -8.795120121081e+004 -8.795120241337e+004 -8.795120730111e+004 -8.795120510622e+004 -8.795120269151e+004 -8.795118733131e+004 -8.795118179463e+004 -8.795118437372e+004 -8.795117554180e+004 -1.163568992368e+005 -1.163569077192e+005 -1.163569018725e+005 -1.163568977280e+005 -1.163568964706e+005 -1.163568864291e+005 -1.163568765979e+005 -1.163568732739e+005 -1.163568712789e+005 -1.440679655719e+005 -1.440679502438e+005 -1.440679539241e+005 -1.440679448793e+005 -1.440679451436e+005 -1.440679388645e+005 -1.440679407601e+005 -1.440679202685e+005 -1.440679270594e+005 -1.710990447348e+005 -1.710990495993e+005 -1.710990443983e+005 -1.710990357482e+005 -1.710990341063e+005 -1.710990344314e+005 -1.710990238215e+005 -1.710990184129e+005 -1.710990150173e+005 -1.974649069975e+005 -1.974649112737e+005 -1.974649146100e+005 -1.974649002005e+005 -1.974648926477e+005 -1.974648936362e+005 -1.974648865333e+005 -1.974648829741e+005 -1.974648745801e+005 -2.231799956377e+005 -2.231799980268e+005 -2.231799947813e+005 -2.231799894011e+005 -2.231799820677e+005 -2.231799732715e+005 -2.231799677707e+005 -2.231799650948e+005 -2.231799670106e+005 -2.482583934474e+005 -2.482583873319e+005 -2.482583843784e+005 -2.482583760786e+005 -2.482583703694e+005 -2.482583600467e+005 -2.482583567090e+005 -2.482583511067e+005 -2.482583488050e+005 -2.727138838051e+005 -2.727138807631e+005 -2.727138741962e+005 -2.727138679214e+005 -2.727138569722e+005 -2.727138502334e+005 -2.727138488745e+005 -2.727138424595e+005 -2.727138391308e+005 -2.965601066894e+005 -2.965601047425e+005 -2.965600987593e+005 -2.965600900728e+005 -2.965600825846e+005 -2.965600772768e+005 -2.965600703814e+005 -2.965600675333e+005 -2.965600619104e+005 -3.198105925218e+005 -3.198105877757e+005 -3.198105851635e+005 -3.198105796693e+005 -3.198105733226e+005 -3.198105634470e+005 -3.198105567557e+005 -3.198105521269e+005 -3.198105524974e+005 -3.424788250720e+005 -3.424788228657e+005 -3.424788198197e+005 -3.424788151665e+005 -3.424788080611e+005 -3.424787977358e+005 -3.424787934512e+005 -3.424787876786e+005 -3.424787866213e+005 -3.645782662092e+005 -3.645782653680e+005 -3.645782629001e+005 -3.645782583993e+005 -3.645782531808e+005 -3.645782463053e+005 -3.645782425009e+005 -3.645782347780e+005 -3.645782386508e+005 -3.861223556634e+005 -3.861223511889e+005 -3.861223506568e+005 -3.861223491319e+005 -3.861223476125e+005 -3.861223401121e+005 -3.861223362415e+005 -3.861223334515e+005 -3.861223323527e+005 -4.071244840047e+005 -4.071244914653e+005 -4.071244880908e+005 -4.071244849783e+005 -4.071244843288e+005 -4.071244826363e+005 -4.071244767905e+005 -4.071244724290e+005 -4.071244705460e+005 -4.275980006886e+005 -4.275980031612e+005 -4.275980022430e+005 -4.275979966964e+005 -4.275979943794e+005 -4.275979926880e+005 -4.275979889408e+005 -4.275979893424e+005 -4.275979861524e+005 -4.475561313032e+005 -4.475561305837e+005 -4.475561289911e+005 -4.475561262799e+005 -4.475561247151e+005 -4.475561238571e+005 -4.475561199434e+005 -4.475561237116e+005 -4.475561202645e+005 -4.670120187424e+005 -4.670120194406e+005 -4.670120175241e+005 -4.670120138029e+005 -4.670120127963e+005 -4.670120134766e+005 -4.670120100576e+005 -4.670120107399e+005 -4.670120086166e+005 -4.859786984044e+005 -4.859786987710e+005 -4.859786967978e+005 -4.859786962106e+005 -4.859786940797e+005 -4.859786949454e+005 -4.859786934413e+005 -4.859786923658e+005 -4.859786944508e+005 -5.044690917281e+005 -5.044690930881e+005 -5.044690945097e+005 -5.044690942567e+005 -5.044690961556e+005 -5.044690921544e+005 -5.044690912088e+005 -5.044690922548e+005 -5.044690939964e+005 -5.224960180752e+005 -5.224960187927e+005 -5.224960225391e+005 -5.224960226470e+005 -5.224960213283e+005 -5.224960176397e+005 -5.224960190409e+005 -5.224960202729e+005 -5.224960214040e+005 -5.400721784078e+005 -5.400721817967e+005 -5.400721820128e+005 -5.400721813979e+005 -5.400721783879e+005 -5.400721791970e+005 -5.400721811510e+005 -5.400721784779e+005 -5.400721793307e+005 -5.572101645560e+005 -5.572101648899e+005 -5.572101647677e+005 -5.572101642483e+005 -5.572101633177e+005 -5.572101615577e+005 -5.572101640486e+005 -5.572101623802e+005 -5.572101620767e+005 -5.739224654287e+005 -5.739224624094e+005 -5.739224640865e+005 -5.739224630781e+005 -5.739224602429e+005 -5.739224614758e+005 -5.739224630744e+005 -5.739224624552e+005 -5.739224623001e+005 -5.902214651520e+005 -5.902214664640e+005 -5.902214665246e+005 -5.902214672170e+005 -5.902214636305e+005 -5.902214636085e+005 -5.902214668720e+005 -5.902214662529e+005 -5.902214647294e+005 -6.061194670395e+005 -6.061194681145e+005 -6.061194674138e+005 -6.061194661564e+005 -6.061194645902e+005 -6.061194655441e+005 -6.061194683995e+005 -6.061194680080e+005 -6.061194655190e+005 -6.216286600259e+005 -6.216286610001e+005 -6.216286607924e+005 -6.216286613764e+005 -6.216286584491e+005 -6.216286598559e+005 -6.216286619565e+005 -6.216286609615e+005 -6.216286592906e+005 -6.367611540908e+005 -6.367611550856e+005 -6.367611563765e+005 -6.367611537324e+005 -6.367611539543e+005 -6.367611550491e+005 -6.367611553645e+005 -6.367611563538e+005 -6.367611529368e+005 -6.515289677820e+005 -6.515289686790e+005 -6.515289682413e+005 -6.515289662576e+005 -6.515289682690e+005 -6.515289678083e+005 -6.515289669408e+005 -6.515289671991e+005 -6.515289665863e+005 -6.659440381572e+005 -6.659440373855e+005 -6.659440369540e+005 -6.659440365845e+005 -6.659440336892e+005 -6.659440338028e+005 -6.659440363147e+005 -6.659440349881e+005 -6.659440347552e+005 -6.800182159290e+005 -6.800182134464e+005 -6.800182132145e+005 -6.800182114062e+005 -6.800182096927e+005 -6.800182100652e+005 -6.800182124763e+005 -6.800182112627e+005 -6.800182122208e+005 -6.937632744270e+005 -6.937632736685e+005 -6.937632736550e+005 -6.937632728246e+005 -6.937632720456e+005 -6.937632719471e+005 -6.937632731633e+005 -6.937632735416e+005 -6.937632732935e+005 -7.071909172991e+005 -7.071909194856e+005 -7.071909199851e+005 -7.071909206954e+005 -7.071909192757e+005 -7.071909200329e+005 -7.071909213304e+005 -7.071909200371e+005 -7.071909192469e+005 -7.203127808276e+005 -7.203127787270e+005 -7.203127812999e+005 -7.203127814489e+005 -7.203127801544e+005 -7.203127825086e+005 -7.203127810962e+005 -7.203127813264e+005 -7.203127807866e+005 -7.331404155603e+005 -7.331404141968e+005 -7.331404140205e+005 -7.331404137681e+005 -7.331404134031e+005 -7.331404152432e+005 -7.331404149005e+005 -7.331404154156e+005 -7.331404135091e+005 -7.456853094710e+005 -7.456853127995e+005 -7.456853132521e+005 -7.456853130406e+005 -7.456853124153e+005 -7.456853140200e+005 -7.456853137108e+005 -7.456853138685e+005 -7.456853144604e+005 -7.579589041441e+005 -7.579589075639e+005 -7.579589066382e+005 -7.579589066699e+005 -7.579589096517e+005 -7.579589077103e+005 -7.579589090695e+005 -7.579589090982e+005 -7.579589093905e+005 -7.699725661314e+005 -7.699725676748e+005 -7.699725681097e+005 -7.699725670636e+005 -7.699725684185e+005 -7.699725688566e+005 -7.699725699997e+005 -7.699725685479e+005 -7.699725687833e+005 -7.817376061814e+005 -7.817376050496e+005 -7.817376052427e+005 -7.817376065470e+005 -7.817376051768e+005 -7.817376060003e+005 -7.817376061050e+005 -7.817376056605e+005 -7.817376052293e+005 -7.932652762795e+005 -7.932652774385e+005 -7.932652758477e+005 -7.932652764556e+005 -7.932652762750e+005 -7.932652770367e+005 -7.932652771182e+005 -7.932652760357e+005 -7.932652772666e+005 -8.045667868871e+005 -8.045667839608e+005 -8.045667832929e+005 -8.045667847669e+005 -8.045667838869e+005 -8.045667831334e+005 -8.045667837483e+005 -8.045667832116e+005 -8.045667845948e+005 -8.156532851234e+005 -8.156532820997e+005 -8.156532806225e+005 -8.156532819741e+005 -8.156532821119e+005 -8.156532824261e+005 -8.156532822489e+005 -8.156532827277e+005 -8.156532806501e+005 -8.265358794248e+005 -8.265358783731e+005 -8.265358770537e+005 -8.265358779146e+005 -8.265358784948e+005 -8.265358783215e+005 -8.265358784930e+005 -8.265358772474e+005 -8.265358772367e+005 -8.372256365433e+005 -8.372256346153e+005 -8.372256334285e+005 -8.372256337743e+005 -8.372256333005e+005 -8.372256318186e+005 -8.372256335823e+005 -8.372256330178e+005 -8.372256324880e+005 -8.477335729794e+005 -8.477335701158e+005 -8.477335694287e+005 -8.477335675882e+005 -8.477335676834e+005 -8.477335674178e+005 -8.477335676820e+005 -8.477335663593e+005 -8.477335656378e+005 -8.580706656354e+005 -8.580706647011e+005 -8.580706636681e+005 -8.580706622988e+005 -8.580706616991e+005 -8.580706608151e+005 -8.580706609224e+005 -8.580706595300e+005 -8.580706600528e+005 -8.682478609701e+005 -8.682478608192e+005 -8.682478586494e+005 -8.682478599453e+005 -8.682478576438e+005 -8.682478572122e+005 -8.682478569324e+005 -8.682478557906e+005 -8.682478546961e+005 -8.782760668473e+005 -8.782760658562e+005 -8.782760667907e+005 -8.782760645138e+005 -8.782760641892e+005 -8.782760630366e+005 -8.782760628091e+005 -8.782760626148e+005 -8.782760615412e+005 -8.881661572509e+005 -8.881661588290e+005 -8.881661581921e+005 -8.881661580126e+005 -8.881661565809e+005 -8.881661561510e+005 -8.881661552949e+005 -8.881661539000e+005 -8.881661532253e+005 -8.979289822806e+005 -8.979289841603e+005 -8.979289848909e+005 -8.979289834260e+005 -8.979289818156e+005 -8.979289819184e+005 -8.979289803469e+005 -8.979289789973e+005 -8.979289788404e+005 -9.075753587751e+005 -9.075753611118e+005 -9.075753609652e+005 -9.075753609312e+005 -9.075753599596e+005 -9.075753581851e+005 -9.075753569951e+005 -9.075753566999e+005 -9.075753560239e+005 -9.171160846881e+005 -9.171160827463e+005 -9.171160836085e+005 -9.171160835431e+005 -9.171160832284e+005 -9.171160806684e+005 -9.171160796453e+005 -9.171160804443e+005 -9.171160801140e+005 -9.265619251001e+005 -9.265619245338e+005 -9.265619242971e+005 -9.265619242007e+005 -9.265619232318e+005 -9.265619209953e+005 -9.265619216404e+005 -9.265619210091e+005 -9.265619213401e+005 -9.359236355946e+005 -9.359236348171e+005 -9.359236347688e+005 -9.359236333394e+005 -9.359236331876e+005 -9.359236321434e+005 -9.359236318653e+005 -9.359236312751e+005 -9.359236319836e+005 -9.452119484832e+005 -9.452119475824e+005 -9.452119479531e+005 -9.452119475858e+005 -9.452119464508e+005 -9.452119463317e+005 -9.452119457116e+005 -9.452119456418e+005 -9.452119444485e+005 -9.544375821275e+005 -9.544375827983e+005 -9.544375835737e+005 -9.544375831130e+005 -9.544375823769e+005 -9.544375826773e+005 -9.544375820279e+005 -9.544375820621e+005 -9.544375817889e+005 -9.636112460224e+005 -9.636112467931e+005 -9.636112473365e+005 -9.636112467518e+005 -9.636112467063e+005 -9.636112469284e+005 -9.636112461127e+005 -9.636112466441e+005 -9.636112467141e+005 -9.727436351955e+005 -9.727436353094e+005 -9.727436356530e+005 -9.727436357785e+005 -9.727436346355e+005 -9.727436344751e+005 -9.727436347795e+005 -9.727436350452e+005 -9.727436348877e+005 -9.818454348793e+005 -9.818454357016e+005 -9.818454363335e+005 -9.818454362608e+005 -9.818454359563e+005 -9.818454352778e+005 -9.818454352778e+005 -9.818454354480e+005 -9.818454355601e+005 -9.909273306940e+005 -9.909273311259e+005 -9.909273313778e+005 -9.909273312277e+005 -9.909273313209e+005 -9.909273308618e+005 -9.909273308614e+005 -9.909273310253e+005 -9.909273308674e+005 -1.000000000000e+006 -1.000000000000e+006 -1.000000000000e+006 -1.000000000000e+006 -1.000000000000e+006 -1.000000000000e+006 -1.000000000000e+006 -1.000000000000e+006 -1.000000000000e+006 
        </DataArray>
        <DataArray type="Float64" Name="NONWET_PRESSURE" format="ascii">