<?xml version="1.0"?>
<VTKFile type="UnstructuredGrid" version="0.1" byte_order="LittleEndian">
  <UnstructuredGrid>
    <Piece NumberOfPoints="909" NumberOfCells="800">
      <Points>
        <DataArray type="Float64" NumberOfComponents="3" format="ascii">
          0.000000000000e+000 0.000000000000e+000 0.000000000000e+000
          2.000000000000e+000 0.000000000000e+000 0.000000000000e+000
          2.000000000000e+000 2.500000000000e+000 0.000000000000e+000
          0.000000000000e+000 2.500000000000e+000 0.000000000000e+000
          2.000000000000e+000 5.000000000000e+000 0.000000000000e+000
          0.000000000000e+000 5.000000000000e+000 0.000000000000e+000
          2.000000000000e+000 7.500000000000e+000 0.000000000000e+000
          0.000000000000e+000 7.500000000000e+000 0.000000000000e+000
          2.000000000000e+000 1.000000000000e+001 0.000000000000e+000
          0.000000000000e+000 1.000000000000e+001 0.000000000000e+000
          2.000000000000e+000 1.250000000000e+001 0.000000000000e+000
          0.000000000000e+000 1.250000000000e+001 0.000000000000e+000
          2.000000000000e+000 1.500000000000e+001 0.000000000000e+000
          0.000000000000e+000 1.500000000000e+001 0.000000000000e+000
          2.000000000000e+000 1.750000000000e+001 0.000000000000e+000
          0.000000000000e+000 1.750000000000e+001 0.000000000000e+000
          2.000000000000e+000 2.000000000000e+001 0.000000000000e+000
          0.000000000000e+000 2.000000000000e+001 0.000000000000e+000
          4.000000000000e+000 0.000000000000e+000 0.000000000000e+000
          4.000000000000e+000 2.500000000000e+000 0.000000000000e+000
          4.000000000000e+000 5.000000000000e+000 0.000000000000e+000
          4.000000000000e+000 7.500000000000e+000 0.000000000000e+000
          4.000000000000e+000 1.000000000000e+001 0.000000000000e+000
          4.000000000000e+000 1.250000000000e+001 0.000000000000e+000
          4.000000000000e+000 1.500000000000e+001 0.000000000000e+000
          4.000000000000e+000 1.750000000000e+001 0.000000000000e+000
          4.000000000000e+000 2.000000000000e+001 0.000000000000e+000
          6.000000000000e+000 0.000000000000e+000 0.000000000000e+000
          6.000000000000e+000 2.500000000000e+000 0.000000000000e+000
          6.000000000000e+000 5.000000000000e+000 0.000000000000e+000
          6.000000000000e+000 7.500000000000e+000 0.000000000000e+000
          6.000000000000e+000 1.000000000000e+001 0.000000000000e+000
          6.000000000000e+000 1.250000000000e+001 0.000000000000e+000
          6.000000000000e+000 1.500000000000e+001 0.000000000000e+000
          6.000000000000e+000 1.750000000000e+001 0.000000000000e+000
          6.000000000000e+000 2.000000000000e+001 0.000000000000e+000
          8.000000000000e+000 0.000000000000e+000 0.000000000000e+000
          8.000000000000e+000 2.500000000000e+000 0.000000000000e+000
          8.000000000000e+000 5.000000000000e+000 0.000000000000e+000
          8.000000000000e+000 7.500000000000e+000 0.000000000000e+000
          8.000000000000e+000 1.000000000000e+001 0.000000000000e+000
          8.000000000000e+000 1.250000000000e+001 0.000000000000e+000
          8.000000000000e+000 1.500000000000e+001 0.000000000000e+000
          8.000000000000e+000 1.750000000000e+001 0.000000000000e+000
          8.000000000000e+000 2.000000000000e+001 0.000000000000e+000
          1.000000000000e+001 0.000000000000e+000 0.000000000000e+000
          1.000000000000e+001 2.500000000000e+000 0.000000000000e+000
          1.000000000000e+001 5.000000000000e+000 0.000000000000e+000
          1.000000000000e+001 7.500000000000e+000 0.000000000000e+000
          1.000000000000e+001 1.000000000000e+001 0.000000000000e+000
          1.000000000000e+001 1.250000000000e+001 0.000000000000e+000
          1.000000000000e+001 1.500000000000e+001 0.000000000000e+000
          1.000000000000e+001 1.750000000000e+001 0.000000000000e+000
          1.000000000000e+001 2.000000000000e+001 0.000000000000e+000
          1.200000000000e+001 0.000000000000e+000 0.000000000000e+000
          1.200000000000e+001 2.500000000000e+000 0.000000000000e+000
          1.200000000000e+001 5.000000000000e+000 0.000000000000e+000
          1.200000000000e+001 7.500000000000e+000 0.000000000000e+000
          1.200000000000e+001 1.000000000000e+001 0.000000000000e+000
          1.200000000000e+001 1.250000000000e+001 0.000000000000e+000
          1.200000000000e+001 1.500000000000e+001 0.000000000000e+000
          1.200000000000e+001 1.750000000000e+001 0.000000000000e+000
          1.200000000000e+001 2.000000000000e+001 0.000000000000e+000
          1.400000000000e+001 0.000000000000e+000 0.000000000000e+000
          1.400000000000e+001 2.500000000000e+000 0.000000000000e+000
          1.400000000000e+001 5.000000000000e+000 0.000000000000e+000
          1.400000000000e+001 7.500000000000e+000 0.000000000000e+000
          1.400000000000e+001 1.000000000000e+001 0.000000000000e+000
          1.400000000000e+001 1.250000000000e+001 0.000000000000e+000
          1.400000000000e+001 1.500000000000e+001 0.000000000000e+000
          1.400000000000e+001 1.750000000000e+001 0.000000000000e+000
          1.400000000000e+001 2.000000000000e+001 0.000000000000e+000
          1.600000000000e+001 0.000000000000e+000 0.000000000000e+000
          1.600000000000e+001 2.500000000000e+000 0.000000000000e+000
          1.600000000000e+001 5.000000000000e+000 0.000000000000e+000
          1.600000000000e+001 7.500000000000e+000 0.000000000000e+000
          1.600000000000e+001 1.000000000000e+001 0.000000000000e+000
          1.600000000000e+001 1.250000000000e+001 0.000000000000e+000
          1.600000000000e+001 1.500000000000e+001 0.000000000000e+000
          1.600000000000e+001 1.750000000000e+001 0.000000000000e+000
          1.600000000000e+001 2.000000000000e+001 0.000000000000e+000
          1.800000000000e+001 0.000000000000e+000 0.000000000000e+000
          1.800000000000e+001 2.500000000000e+000 0.000000000000e+000
          1.800000000000e+001 5.000000000000e+000 0.000000000000e+000
          1.800000000000e+001 7.500000000000e+000 0.000000000000e+000
          1.800000000000e+001 1.000000000000e+001 0.000000000000e+000
          1.800000000000e+001 1.250000000000e+001 0.000000000000e+000
          1.800000000000e+001 1.500000000000e+001 0.000000000000e+000
          1.800000000000e+001 1.750000000000e+001 0.000000000000e+000
          1.800000000000e+001 2.000000000000e+001 0.000000000000e+000
          2.000000000000e+001 0.000000000000e+000 0.000000000000e+000
          2.000000000000e+001 2.500000000000e+000 0.000000000000e+000
          2.000000000000e+001 5.000000000000e+000 0.000000000000e+000
          2.000000000000e+001 7.500000000000e+000 0.000000000000e+000
          2.000000000000e+001 1.000000000000e+001 0.000000000000e+000
          2.000000000000e+001 1.250000000000e+001 0.000000000000e+000
          2.000000000000e+001 1.500000000000e+001 0.000000000000e+000
          2.000000000000e+001 1.750000000000e+001 0.000000000000e+000
          2.000000000000e+001 2.000000000000e+001 0.000000000000e+000
          2.200000000000e+001 0.000000000000e+000 0.000000000000e+000
          2.200000000000e+001 2.500000000000e+000 0.000000000000e+000
          2.200000000000e+001 5.000000000000e+000 0.000000000000e+000
          2.200000000000e+001 7.500000000000e+000 0.000000000000e+000
          2.200000000000e+001 1.000000000000e+001 0.000000000000e+000
          2.200000000000e+001 1.250000000000e+001 0.000000000000e+000
          2.200000000000e+001 1.500000000000e+001 0.000000000000e+000
          2.200000000000e+001 1.750000000000e+001 0.000000000000e+000
          2.200000000000e+001 2.000000000000e+001 0.000000000000e+000
          2.400000000000e+001 0.000000000000e+000 0.000000000000e+000
          2.400000000000e+001 2.500000000000e+000 0.000000000000e+000
          2.400000000000e+001 5.000000000000e+000 0.000000000000e+000
          2.400000000000e+001 7.500000000000e+000 0.000000000000e+000
          2.400000000000e+001 1.000000000000e+001 0.000000000000e+000
          2.400000000000e+001 1.250000000000e+001 0.000000000000e+000
          2.400000000000e+001 1.500000000000e+001 0.000000000000e+000
          2.400000000000e+001 1.750000000000e+001 0.000000000000e+000
          2.400000000000e+001 2.000000000000e+001 0.000000000000e+000
          2.600000000000e+001 0.000000000000e+000 0.000000000000e+000
          2.600000000000e+001 2.500000000000e+000 0.000000000000e+000
          2.600000000000e+001 5.000000000000e+000 0.000000000000e+000
          2.600000000000e+001 7.500000000000e+000 0.000000000000e+000
          2.600000000000e+001 1.000000000000e+001 0.000000000000e+000
          2.600000000000e+001 1.250000000000e+001 0.000000000000e+000
          2.600000000000e+001 1.500000000000e+001 0.000000000000e+000
          2.600000000000e+001 1.750000000000e+001 0.000000000000e+000
          2.600000000000e+001 2.000000000000e+001 0.000000000000e+000
          2.800000000000e+001 0.000000000000e+000 0.000000000000e+000
          2.800000000000e+001 2.500000000000e+000 0.000000000000e+000
          2.800000000000e+001 5.000000000000e+000 0.000000000000e+000
          2.800000000000e+001 7.500000000000e+000 0.000000000000e+000
          2.800000000000e+001 1.000000000000e+001 0.000000000000e+000
          2.800000000000e+001 1.250000000000e+001 0.000000000000e+000
          2.800000000000e+001 1.500000000000e+001 0.000000000000e+000
          2.800000000000e+001 1.750000000000e+001 0.000000000000e+000
          2.800000000000e+001 2.000000000000e+001 0.000000000000e+000
          3.000000000000e+001 0.000000000000e+000 0.000000000000e+000
          3.000000000000e+001 2.500000000000e+000 0.000000000000e+000
          3.000000000000e+001 5.000000000000e+000 0.000000000000e+000
          3.000000000000e+001 7.500000000000e+000 0.000000000000e+000
[...]
      <PointData Scalars="CAPILLARY_PRESSURE">
        <DataArray type="Float64" Name="CAPILLARY_PRESSURE" format="ascii">
          3.564324000116e+005 3.544262867225e+005 3.544262867225e+005 3.564324000116e+005 3.544262867225e+005 3.564324000116e+005 3.544262867225e+005 3.564324000116e+005 3.544262867225e+005 3.564324000116e+005 3.544262867225e+005 3.564324000116e+005 3.544262867225e+005 3.564324000116e+005 3.544262867225e+005 3.564324000116e+005 3.544262867225e+005 3.564324000116e+005 3.524205536635e+005 3.524205536635e+005 3.524205536635e+005 3.524205536635e+005 3.524205536635e+005 3.524205536635e+005 3.524205536635e+005 3.524205536635e+005 3.524205536635e+005 3.504145012544e+005 3.504145012544e+005 3.504145012544e+005 3.504145012544e+005 3.504145012544e+005 3.504145012544e+005 3.504145012544e+005 3.504145012544e+005 3.504145012544e+005 3.484078480457e+005 3.484078480457e+005 3.484078480457e+005 3.484078480457e+005 3.484078480457e+005 3.484078480457e+005 3.484078480457e+005 3.484078480457e+005 3.484078480457e+005 3.464002161575e+005 3.464002161575e+005 3.464002161575e+005 3.464002161575e+005 3.464002161575e+005 3.464002161575e+005 3.464002161575e+005 3.464002161575e+005 3.464002161575e+005 3.443912119447e+005 3.443912119447e+005 3.443912119447e+005 3.443912119447e+005 3.443912119447e+005 3.443912119447e+005 3.443912119447e+005 3.443912119447e+005 3.443912119447e+005 3.423804133108e+005 3.423804133108e+005 3.423804133108e+005 3.423804133108e+005 3.423804133108e+005 3.423804133108e+005 3.423804133108e+005 3.423804133108e+005 3.423804133108e+005 3.403673734847e+005 3.403673734847e+005 3.403673734847e+005 3.403673734847e+005 3.403673734847e+005 3.403673734847e+005 3.403673734847e+005 3.403673734847e+005 3.403673734847e+005 3.383516204503e+005 3.383516204504e+005 3.383516204504e+005 3.383516204504e+005 3.383516204504e+005 3.383516204504e+005 3.383516204504e+005 3.383516204504e+005 3.383516204503e+005 3.363326564934e+005 3.363326564934e+005 3.363326564934e+005 3.363326564934e+005 3.363326564934e+005 3.363326564934e+005 3.363326564934e+005 3.363326564934e+005 3.363326564934e+005 3.343099579246e+005 3.343099579246e+005 3.343099579246e+005 3.343099579246e+005 3.343099579246e+005 3.343099579246e+005 3.343099579246e+005 3.343099579246e+005 3.343099579246e+005 3.322829746857e+005 3.322829746857e+005 3.322829746857e+005 3.322829746857e+005 3.322829746857e+005 3.322829746857e+005 3.322829746857e+005 3.322829746857e+005 3.322829746857e+005 3.302511297019e+005 3.302511297019e+005 3.302511297019e+005 3.302511297019e+005 3.302511297019e+005 3.302511297019e+005 3.302511297019e+005 3.302511297019e+005 3.302511297019e+005 3.282138181220e+005 3.282138181220e+005 3.282138181220e+005 3.282138181220e+005 3.282138181220e+005 3.282138181220e+005 3.282138181220e+005 3.282138181220e+005 3.282138181220e+005 3.261704064414e+005 3.261704064414e+005 3.261704064414e+005 3.261704064414e+005 3.261704064414e+005 3.261704064414e+005 3.261704064414e+005 3.261704064414e+005 3.261704064414e+005 3.241202314689e+005 3.241202314689e+005 3.241202314689e+005 3.241202314689e+005 3.241202314689e+005 3.241202314689e+005 3.241202314689e+005 3.241202314689e+005 3.241202314689e+005 3.220625991205e+005 3.220625991205e+005 3.220625991205e+005 3.220625991205e+005 3.220625991205e+005 3.220625991205e+005 3.220625991205e+005 3.220625991205e+005 3.220625991205e+005 3.199967830438e+005 3.199967830438e+005 3.199967830438e+005 3.199967830438e+005 3.199967830438e+005 3.199967830438e+005 3.199967830438e+005 3.199967830438e+005 3.199967830438e+005 3.179220230835e+005 3.179220230835e+005 3.179220230835e+005 3.179220230835e+005 3.179220230835e+005 3.179220230835e+005 3.179220230835e+005 3.179220230835e+005 3.179220230835e+005 3.158375235971e+005 3.158375235971e+005 3.158375235971e+005 3.158375235971e+005 3.158375235971e+005 3.158375235971e+005 3.158375235971e+005 3.158375235971e+005 3.158375235971e+005 3.137424516197e+005 3.137424516197e+005 3.137424516197e+005 3.137424516197e+005 3.137424516197e+005 3.137424516197e+005 3.137424516197e+005 3.137424516197e+005 3.137424516197e+005 3.116359348727e+005 3.116359348727e+005 3.116359348727e+005 3.116359348727e+005 3.116359348727e+005 3.116359348727e+005 3.116359348727e+005 3.116359348727e+005 3.116359348727e+005 3.095170596028e+005 3.095170596028e+005 3.095170596028e+005 3.095170596028e+005 3.095170596028e+005 3.095170596028e+005 3.095170596028e+005 3.095170596028e+005 3.095170596028e+005 3.073848682359e+005 3.073848682359e+005 3.073848682359e+005 3.073848682359e+005 3.073848682359e+005 3.073848682359e+005 3.073848682359e+005 3.073848682359e+005 3.073848682359e+005 3.052383568261e+005 3.052383568261e+005 3.052383568261e+005 3.052383568261e+005 3.052383568261e+005 3.052383568261e+005 3.052383568261e+005 3.052383568261e+005 3.052383568261e+005 3.030764722772e+005 3.030764722772e+005 3.030764722772e+005 3.030764722772e+005 3.030764722772e+005 3.030764722772e+005 3.030764722772e+005 3.030764722772e+005 3.030764722772e+005 3.008981093109e+005 3.008981093109e+005 3.008981093109e+005 3.008981093109e+005 3.008981093109e+005 3.008981093109e+005 3.008981093109e+005 3.008981093109e+005 3.008981093109e+005 2.987021071556e+005 2.987021071556e+005 2.987021071556e+005 2.987021071556e+005 2.987021071556e+005 2.987021071556e+005 2.987021071556e+005 2.987021071556e+005 2.987021071556e+005 2.964872459226e+005 2.964872459226e+005 2.964872459226e+005 2.964872459226e+005 2.964872459226e+005 2.964872459226e+005 2.964872459226e+005 2.964872459226e+005 2.964872459226e+005 2.942522426339e+005 2.942522426339e+005 2.942522426339e+005 2.942522426339e+005 2.942522426339e+005 2.942522426339e+005 2.942522426339e+005 2.942522426339e+005 2.942522426339e+005 2.919957468633e+005 2.919957468633e+005 2.919957468633e+005 2.919957468633e+005 2.919957468633e+005 2.919957468633e+005 2.919957468633e+005 2.919957468633e+005 2.919957468633e+005 2.897163359415e+005 2.897163359415e+005 2.897163359415e+005 2.897163359415e+005 2.897163359415e+005 2.897163359415e+005 2.897163359415e+005 2.897163359415e+005 2.897163359415e+005 2.874125096760e+005 2.874125096760e+005 2.874125096760e+005 2.874125096760e+005 2.874125096760e+005 2.874125096760e+005 2.874125096760e+005 2.874125096760e+005 2.874125096760e+005 2.850826845216e+005 2.850826845216e+005 2.850826845216e+005 2.850826845216e+005 2.850826845216e+005 2.850826845216e+005 2.850826845216e+005 2.850826845216e+005 2.850826845216e+005 2.827251871343e+005 2.827251871343e+005 2.827251871343e+005 2.827251871343e+005 2.827251871343e+005 2.827251871343e+005 2.827251871343e+005 2.827251871343e+005 2.827251871343e+005 2.803382472269e+005 2.803382472269e+005 2.803382472269e+005 2.803382472269e+005 2.803382472269e+005 2.803382472269e+005 2.803382472269e+005 2.803382472269e+005 2.803382472269e+005 2.779199896323e+005 2.779199896323e+005 2.779199896323e+005 2.779199896323e+005 2.779199896323e+005 2.779199896323e+005 2.779199896323e+005 2.779199896323e+005 2.779199896323e+005 2.754684254662e+005 2.754684254662e+005 2.754684254662e+005 2.754684254662e+005 2.754684254662e+005 2.754684254662e+005 2.754684254662e+005 2.754684254662e+005 2.754684254662e+005 2.729814422627e+005 2.729814422627e+005 2.729814422627e+005 2.729814422627e+005 2.729814422628e+005 2.729814422627e+005 2.729814422627e+005 2.729814422627e+005 2.729814422627e+005 2.704567929334e+005 2.704567929334e+005 2.704567929334e+005 2.704567929334e+005 2.704567929334e+005 2.704567929334e+005 2.704567929334e+005 2.704567929334e+005 2.704567929334e+005 2.678920833754e+005 2.678920833753e+005 2.678920833754e+005 2.678920833753e+005 2.678920833754e+005 2.678920833753e+005 2.678920833753e+005 2.678920833753e+005 2.678920833753e+005 2.652847585239e+005 2.652847585239e+005 2.652847585239e+005 2.652847585239e+005 2.652847585239e+005 2.652847585239e+005 2.652847585239e+005 2.652847585239e+005 2.652847585239e+005 2.626320866036e+005 2.626320866036e+005 2.626320866036e+005 2.626320866036e+005 2.626320866036e+005 2.626320866036e+005 2.626320866036e+005 2.626320866036e+005 2.626320866036e+005 2.599311412905e+005 2.599311412905e+005 2.599311412905e+005 2.599311412905e+005 2.599311412905e+005 2.599311412905e+005 2.599311412905e+005 2.599311412905e+005 2.599311412905e+005 2.571787814375e+005 2.571787814375e+005 2.571787814375e+005 2.571787814375e+005 2.571787814375e+005 2.571787814375e+005 2.571787814375e+005 2.571787814375e+005 2.571787814375e+005 2.543716279491e+005 2.543716279491e+005 2.543716279491e+005 2.543716279491e+005 2.543716279491e+005 2.543716279491e+005 2.543716279491e+005 2.543716279491e+005 2.543716279491e+005 2.515060373039e+005 2.515060373039e+005 2.515060373039e+005 2.515060373039e+005 2.515060373039e+005 2.515060373039e+005 2.515060373039e+005 2.515060373039e+005 2.515060373039e+005 2.485780711197e+005 2.485780711197e+005 2.485780711197e+005 2.485780711197e+005 2.485780711197e+005 2.485780711197e+005 2.485780711197e+005 2.485780711197e+005 2.485780711197e+005 2.455834610217e+005 2.455834610217e+005 2.455834610217e+005 2.455834610217e+005 2.455834610217e+005 2.455834610217e+005 2.455834610217e+005 2.455834610217e+005 2.455834610217e+005 2.425175679077e+005 2.425175679077e+005 2.425175679077e+005 2.425175679077e+005 2.425175679077e+005 2.425175679077e+005 2.425175679077e+005 2.425175679077e+005 2.425175679077e+005 2.393753344947e+005 2.393753344947e+005 2.393753344947e+005 2.393753344947e+005 2.393753344947e+005 2.393753344947e+005 2.393753344947e+005 2.393753344947e+005 2.393753344947e+005 2.361512297569e+005 2.361512297569e+005 2.361512297569e+005 2.361512297569e+005 2.361512297569e+005 2.361512297569e+005 2.361512297569e+005 2.361512297569e+005 2.361512297569e+005 2.328391835183e+005 2.328391835183e+005 2.328391835183e+005 2.328391835183e+005 2.328391835183e+005 2.328391835183e+005 2.328391835183e+005 2.328391835183e+005 2.328391835183e+005 2.294325090041e+005 2.294325090041e+005 2.294325090041e+005 2.294325090041e+005 2.294325090041e+005 2.294325090041e+005 2.294325090041e+005 2.294325090041e+005 2.294325090041e+005 2.259238105548e+005 2.259238105548e+005 2.259238105548e+005 2.259238105548e+005 2.259238105548e+005 2.259238105548e+005 2.259238105548e+005 2.259238105548e+005 2.259238105548e+005 2.223048729038e+005 2.223048729038e+005 2.223048729038e+005 2.223048729038e+005 2.223048729038e+005 2.223048729038e+005 2.223048729038e+005 2.223048729038e+005 2.223048729038e+005 2.185665273423e+005 2.185665273423e+005 2.185665273423e+005 2.185665273423e+005 2.185665273423e+005 2.185665273423e+005 2.185665273423e+005 2.185665273423e+005 2.185665273423e+005 2.146984886259e+005 2.146984886259e+005 2.146984886259e+005 2.146984886259e+005 2.146984886259e+005 2.146984886259e+005 2.146984886259e+005 2.146984886259e+005 2.146984886259e+005 2.106891544576e+005 2.106891544576e+005 2.106891544576e+005 2.106891544576e+005 2.106891544576e+005 2.106891544576e+005 2.106891544576e+005 2.106891544576e+005 2.106891544576e+005 2.065253565761e+005 2.065253565761e+005 2.065253565761e+005 2.065253565761e+005 2.065253565761e+005 2.065253565761e+005 2.065253565761e+005 2.065253565761e+005 2.065253565761e+005 2.021920485219e+005 2.021920485219e+005 2.021920485219e+005 2.021920485219e+005 2.021920485219e+005 2.021920485219e+005 2.021920485220e+005 2.021920485220e+005 2.021920485220e+005 1.976719095139e+005 1.976719095139e+005 1.976719095139e+005 1.976719095139e+005 1.976719095139e+005 1.976719095139e+005 1.976719095139e+005 1.976719095139e+005 1.976719095140e+005 1.929448356686e+005 1.929448356686e+005 1.929448356686e+005 1.929448356686e+005 1.929448356686e+005 1.929448356686e+005 1.929448356686e+005 1.929448356686e+005 1.929448356686e+005 1.879872776270e+005 1.879872776270e+005 1.879872776270e+005 1.879872776270e+005 1.879872776270e+005 1.879872776270e+005 1.879872776270e+005 1.879872776270e+005 1.879872776270e+005 1.827713651090e+005 1.827713651090e+005 1.827713651090e+005 1.827713651090e+005 1.827713651090e+005 1.827713651090e+005 1.827713651090e+005 1.827713651090e+005 1.827713651090e+005 1.772637298041e+005 1.772637298041e+005 1.772637298040e+005 1.772637298040e+005 1.772637298040e+005 1.772637298040e+005 1.772637298039e+005 1.772637298039e+005 1.772637298039e+005 1.714238908997e+005 1.714238908997e+005 1.714238908996e+005 1.714238908996e+005 1.714238908995e+005 1.714238908994e+005 1.714238908993e+005 1.714238908993e+005 1.714238908993e+005 1.652019891259e+005 1.652019891258e+005 1.652019891257e+005 1.652019891256e+005 1.652019891254e+005 1.652019891252e+005 1.652019891251e+005 1.652019891250e+005 1.652019891249e+005 1.585355209091e+005 1.585355209090e+005 1.585355209088e+005 1.585355209085e+005 1.585355209081e+005 1.585355209078e+005 1.585355209075e+005 1.585355209074e+005 1.585355209073e+005 1.513444869736e+005 1.513444869735e+005 1.513444869731e+005 1.513444869726e+005 1.513444869720e+005 1.513444869715e+005 1.513444869710e+005 1.513444869707e+005 1.513444869706e+005 1.435239305880e+005 1.435239305877e+005 1.435239305872e+005 1.435239305863e+005 1.435239305854e+005 1.435239305846e+005 1.435239305839e+005 1.435239305836e+005 1.435239305834e+005 1.349319677041e+005 1.349319677038e+005 1.349319677029e+005 1.349319677018e+005 1.349319677006e+005 1.349319676996e+005 1.349319676989e+005 1.349319676985e+005 1.349319676984e+005 1.253695624243e+005 1.253695624238e+005 1.253695624229e+005 1.253695624217e+005 1.253695624205e+005 1.253695624198e+005 1.253695624195e+005 1.253695624197e+005 1.253695624196e+005 1.145441238844e+005 1.145441238847e+005 1.145441238835e+005 1.145441238832e+005 1.145441238832e+005 1.145441238842e+005 1.145441238856e+005 1.145441238866e+005 1.145441238878e+005 1.019985028979e+005 1.019985028959e+005 1.019985028986e+005 1.019985029001e+005 1.019985029042e+005 1.019985029081e+005 1.019985029129e+005 1.019985029185e+005 1.019985029183e+005 8.695709554631e+004 8.695709555383e+004 8.695709555157e+004 8.695709556136e+004 8.695709557069e+004 8.695709558330e+004 8.695709559309e+004 8.695709559673e+004 8.695709560547e+004 6.794327675156e+004 6.794327674001e+004 6.794327676102e+004 6.794327676097e+004 6.794327677632e+004 6.794327677989e+004 6.794327678013e+004 6.794327678917e+004 6.794327677666e+004 4.167550057072e+004 4.167550062527e+004 4.167550057682e+004 4.167550059146e+004 4.167550055608e+004 4.167550056141e+004 4.167550054703e+004 4.167550049354e+004 4.167550053537e+004 1.302207494629e+003 1.302207095969e+003 1.302207425186e+003 1.302207209740e+003 1.302207281836e+003 1.302207173711e+003 1.302207107867e+003 1.302207331168e+003 1.302206991521e+003 -4.671043818922e+004 -4.671043537591e+004 -4.671043480996e+004 -4.671043638036e+004 -4.671043537732e+004 -4.671043450693e+004 -4.671043513509e+004 -4.671043460591e+004 -4.671043608331e+004 -9.471368050127e+004 -9.471367749608e+004 -9.471367607723e+004 -9.471367743940e+004 -9.471367753876e+004 -9.471367779906e+004 -9.471367760819e+004 -9.471367810816e+004 -9.471367602818e+004 -1.426615140880e+005 -1.426615130472e+005 -1.426615117424e+005 -1.426615126061e+005 -1.426615131678e+005 -1.426615129708e+005 -1.426615131290e+005 -1.426615118815e+005 -1.426615118745e+005 -1.905622982377e+005 -1.905622963119e+005 -1.905622951293e+005 -1.905622954728e+005 -1.905622949888e+005 -1.905622934933e+005 -1.905622952467e+005 -1.905622946788e+005 -1.905622941477e+005 -2.384182108264e+005 -2.384182079637e+005 -2.384182072765e+005 -2.384182054329e+005 -2.384182055210e+005 -2.384182052464e+005 -2.384182055040e+005 -2.384182041773e+005 -2.384182034537e+005 -2.862320039229e+005 -2.862320029885e+005 -2.862320019537e+005 -2.862320005824e+005 -2.862319999771e+005 -2.862319990869e+005 -2.862319991896e+005 -2.862319977938e+005 -2.862319983158e+005 -3.340062838953e+005 -3.340062837443e+005 -3.340062815734e+005 -3.340062828663e+005 -3.340062805611e+005 -3.340062801254e+005 -3.340062798425e+005 -3.340062786980e+005 -3.340062776029e+005 -3.817435769519e+005 -3.817435759607e+005 -3.817435768940e+005 -3.817435746150e+005 -3.817435742878e+005 -3.817435731320e+005 -3.817435729022e+005 -3.817435727061e+005 -3.817435716319e+005 -4.294463262352e+005 -4.294463278131e+005 -4.294463271751e+005 -4.294463269940e+005 -4.294463255604e+005 -4.294463251282e+005 -4.294463242702e+005 -4.294463228743e+005 -4.294463221990e+005 -4.771169159151e+005 -4.771169177946e+005 -4.771169185244e+005 -4.771169170583e+005 -4.771169154465e+005 -4.771169155476e+005 -4.771169139744e+005 -4.771169126240e+005 -4.771169124670e+005 -5.247576565617e+005 -5.247576588980e+005 -5.247576587507e+005 -5.247576587158e+005 -5.247576577431e+005 -5.247576559675e+005 -5.247576547768e+005 -5.247576544806e+005 -5.247576538042e+005 -5.723707997920e+005 -5.723707978498e+005 -5.723707987118e+005 -5.723707986451e+005 -5.723707983297e+005 -5.723707957688e+005 -5.723707947452e+005 -5.723707955437e+005 -5.723707952132e+005 -6.199585383192e+005 -6.199585377529e+005 -6.199585375156e+005 -6.199585374186e+005 -6.199585364491e+005 -6.199585342121e+005 -6.199585348565e+005 -6.199585342251e+005 -6.199585345559e+005 -6.675230377310e+005 -6.675230369531e+005 -6.675230369044e+005 -6.675230354747e+005 -6.675230353223e+005 -6.675230342778e+005 -6.675230339993e+005 -6.675230334088e+005 -6.675230341172e+005 -7.150664260945e+005 -7.150664251937e+005 -7.150664255640e+005 -7.150664251962e+005 -7.150664240610e+005 -7.150664239417e+005 -7.150664233213e+005 -7.150664232516e+005 -7.150664220579e+005 -7.625908055913e+005 -7.625908062620e+005 -7.625908070371e+005 -7.625908065763e+005 -7.625908058400e+005 -7.625908061402e+005 -7.625908054906e+005 -7.625908055246e+005 -7.625908052512e+005 -8.100982607119e+005 -8.100982614824e+005 -8.100982620257e+005 -8.100982614409e+005 -8.100982613952e+005 -8.100982616173e+005 -8.100982608016e+005 -8.100982613327e+005 -8.100982614027e+005 -8.575908562144e+005 -8.575908563284e+005 -8.575908566716e+005 -8.575908567971e+005 -8.575908556541e+005 -8.575908554938e+005 -8.575908557982e+005 -8.575908560636e+005 -8.575908559063e+005 -9.050706447307e+005 -9.050706455529e+005 -9.050706461846e+005 -9.050706461118e+005 -9.050706458075e+005 -9.050706451291e+005 -9.050706451290e+005 -9.050706452990e+005 -9.050706454113e+005 -9.525396783637e+005 -9.525396787956e+005 -9.525396790472e+005 -9.525396788971e+005 -9.525396789903e+005 -9.525396785315e+005 -9.525396785308e+005 -9.525396786948e+005 -9.525396785368e+005 -1.000000000000e+006 -1.000000000000e+006 -1.000000000000e+006 -1.000000000000e+006 -1.000000000000e+006 -1.000000000000e+006 -1.000000000000e+006 -1.000000000000e+006 -1.000000000000e+006 
        </DataArray>
        <DataArray type="Float64" Name="NONWET_PRESSURE" format="ascii">