<?xml version="1.0"?>
<VTKFile type="UnstructuredGrid" version="0.1" byte_order="LittleEndian">
  <UnstructuredGrid>
    <Piece NumberOfPoints="909" NumberOfCells="800">
      <Points>
        <DataArray type="Float64" NumberOfComponents="3" format="ascii">
          0.000000000000e+000 0.000000000000e+000 0.000000000000e+000
          2.000000000000e+000 0.000000000000e+000 0.000000000000e+000
          2.000000000000e+000 2.500000000000e+000 0.000000000000e+000
          0.000000000000e+000 2.500000000000e+000 0.000000000000e+000
          2.000000000000e+000 5.000000000000e+000 0.000000000000e+000
          0.000000000000e+000 5.000000000000e+000 0.000000000000e+000
          2.000000000000e+000 7.500000000000e+000 0.000000000000e+000
          0.000000000000e+000 7.500000000000e+000 0.000000000000e+000
          2.000000000000e+000 1.000000000000e+001 0.000000000000e+000
          0.000000000000e+000 1.000000000000e+001 0.000000000000e+000
          2.000000000000e+000 1.250000000000e+001 0.000000000000e+000
          0.000000000000e+000 1.250000000000e+001 0.000000000000e+000
          2.000000000000e+000 1.500000000000e+001 0.000000000000e+000
          0.000000000000e+000 1.500000000000e+001 0.000000000000e+000
          2.000000000000e+000 1.750000000000e+001 0.000000000000e+000
          0.000000000000e+000 1.750000000000e+001 0.000000000000e+000
          2.000000000000e+000 2.000000000000e+001 0.000000000000e+000
          0.000000000000e+000 2.000000000000e+001 0.000000000000e+000
          4.000000000000e+000 0.000000000000e+000 0.000000000000e+000
          4.000000000000e+000 2.500000000000e+000 0.000000000000e+000
          4.000000000000e+000 5.000000000000e+000 0.000000000000e+000
          4.000000000000e+000 7.500000000000e+000 0.000000000000e+000
          4.000000000000e+000 1.000000000000e+001 0.000000000000e+000
          4.000000000000e+000 1.250000000000e+001 0.000000000000e+000
          4.000000000000e+000 1.500000000000e+001 0.000000000000e+000
          4.000000000000e+000 1.750000000000e+001 0.000000000000e+000
          4.000000000000e+000 2.000000000000e+001 0.000000000000e+000
          6.000000000000e+000 0.000000000000e+000 0.000000000000e+000
          6.000000000000e+000 2.500000000000e+000 0.000000000000e+000
          6.000000000000e+000 5.000000000000e+000 0.000000000000e+000
          6.000000000000e+000 7.500000000000e+000 0.000000000000e+000
          6.000000000000e+000 1.000000000000e+001 0.000000000000e+000
          6.000000000000e+000 1.250000000000e+001 0.000000000000e+000
          6.000000000000e+000 1.500000000000e+001 0.000000000000e+000
          6.000000000000e+000 1.750000000000e+001 0.000000000000e+000
          6.000000000000e+000 2.000000000000e+001 0.000000000000e+000
          8.000000000000e+000 0.000000000000e+000 0.000000000000e+000
          8.000000000000e+000 2.500000000000e+000 0.000000000000e+000
          8.000000000000e+000 5.000000000000e+000 0.000000000000e+000
          8.000000000000e+000 7.500000000000e+000 0.000000000000e+000
          8.000000000000e+000 1.000000000000e+001 0.000000000000e+000
          8.000000000000e+000 1.250000000000e+001 0.000000000000e+000
          8.000000000000e+000 1.500000000000e+001 0.000000000000e+000
          8.000000000000e+000 1.750000000000e+001 0.000000000000e+000
          8.000000000000e+000 2.000000000000e+001 0.000000000000e+000
          1.000000000000e+001 0.000000000000e+000 0.000000000000e+000
          1.000000000000e+001 2.500000000000e+000 0.000000000000e+000
          1.000000000000e+001 5.000000000000e+000 0.000000000000e+000
          1.000000000000e+001 7.500000000000e+000 0.000000000000e+000
          1.000000000000e+001 1.000000000000e+001 0.000000000000e+000
          1.000000000000e+001 1.250000000000e+001 0.000000000000e+000
          1.000000000000e+001 1.500000000000e+001 0.000000000000e+000
          1.000000000000e+001 1.750000000000e+001 0.000000000000e+000
          1.000000000000e+001 2.000000000000e+001 0.000000000000e+000
          1.200000000000e+001 0.000000000000e+000 0.000000000000e+000
          1.200000000000e+001 2.500000000000e+000 0.000000000000e+000
          1.200000000000e+001 5.000000000000e+000 0.000000000000e+000
          1.200000000000e+001 7.500000000000e+000 0.000000000000e+000
          1.200000000000e+001 1.000000000000e+001 0.000000000000e+000
          1.200000000000e+001 1.250000000000e+001 0.000000000000e+000
          1.200000000000e+001 1.500000000000e+001 0.000000000000e+000
          1.200000000000e+001 1.750000000000e+001 0.000000000000e+000
          1.200000000000e+001 2.000000000000e+001 0.000000000000e+000
          1.400000000000e+001 0.000000000000e+000 0.000000000000e+000
          1.400000000000e+001 2.500000000000e+000 0.000000000000e+000
          1.400000000000e+001 5.000000000000e+000 0.000000000000e+000
          1.400000000000e+001 7.500000000000e+000 0.000000000000e+000
          1.400000000000e+001 1.000000000000e+001 0.000000000000e+000
          1.400000000000e+001 1.250000000000e+001 0.000000000000e+000
          1.400000000000e+001 1.500000000000e+001 0.000000000000e+000
          1.400000000000e+001 1.750000000000e+001 0.000000000000e+000
          1.400000000000e+001 2.000000000000e+001 0.000000000000e+000
          1.600000000000e+001 0.000000000000e+000 0.000000000000e+000
          1.600000000000e+001 2.500000000000e+000 0.000000000000e+000
          1.600000000000e+001 5.000000000000e+000 0.000000000000e+000
          1.600000000000e+001 7.500000000000e+000 0.000000000000e+000
          1.600000000000e+001 1.000000000000e+001 0.000000000000e+000
          1.600000000000e+001 1.250000000000e+001 0.000000000000e+000
          1.600000000000e+001 1.500000000000e+001 0.000000000000e+000
          1.600000000000e+001 1.750000000000e+001 0.000000000000e+000
          1.600000000000e+001 2.000000000000e+001 0.000000000000e+000
          1.800000000000e+001 0.000000000000e+000 0.000000000000e+000
          1.800000000000e+001 2.500000000000e+000 0.000000000000e+000
          1.800000000000e+001 5.000000000000e+000 0.000000000000e+000
          1.800000000000e+001 7.500000000000e+000 0.000000000000e+000
          1.800000000000e+001 1.000000000000e+001 0.000000000000e+000
          1.800000000000e+001 1.250000000000e+001 0.000000000000e+000
          1.800000000000e+001 1.500000000000e+001 0.000000000000e+000
          1.800000000000e+001 1.750000000000e+001 0.000000000000e+000
          1.800000000000e+001 2.000000000000e+001 0.000000000000e+000
          2.000000000000e+001 0.000000000000e+000 0.000000000000e+000
          2.000000000000e+001 2.500000000000e+000 0.000000000000e+000
          2.000000000000e+001 5.000000000000e+000 0.000000000000e+000
          2.000000000000e+001 7.500000000000e+000 0.000000000000e+000
          2.000000000000e+001 1.000000000000e+001 0.000000000000e+000
          2.000000000000e+001 1.250000000000e+001 0.000000000000e+000
          2.000000000000e+001 1.500000000000e+001 0.000000000000e+000
          2.000000000000e+001 1.750000000000e+001 0.000000000000e+000
          2.000000000000e+001 2.000000000000e+001 0.000000000000e+000
          2.200000000000e+001 0.000000000000e+000 0.000000000000e+000
          2.200000000000e+001 2.500000000000e+000 0.000000000000e+000
          2.200000000000e+001 5.000000000000e+000 0.000000000000e+000
          2.200000000000e+001 7.500000000000e+000 0.000000000000e+000
          2.200000000000e+001 1.000000000000e+001 0.000000000000e+000
          2.200000000000e+001 1.250000000000e+001 0.000000000000e+000
          2.200000000000e+001 1.500000000000e+001 0.000000000000e+000
          2.200000000000e+001 1.750000000000e+001 0.000000000000e+000
          2.200000000000e+001 2.000000000000e+001 0.000000000000e+000
          2.400000000000e+001 0.000000000000e+000 0.000000000000e+000
          2.400000000000e+001 2.500000000000e+000 0.000000000000e+000
          2.400000000000e+001 5.000000000000e+000 0.000000000000e+000
          2.400000000000e+001 7.500000000000e+000 0.000000000000e+000
          2.400000000000e+001 1.000000000000e+001 0.000000000000e+000
          2.400000000000e+001 1.250000000000e+001 0.000000000000e+000
          2.400000000000e+001 1.500000000000e+001 0.000000000000e+000
          2.400000000000e+001 1.750000000000e+001 0.000000000000e+000
          2.400000000000e+001 2.000000000000e+001 0.000000000000e+000
          2.600000000000e+001 0.000000000000e+000 0.000000000000e+000
          2.600000000000e+001 2.500000000000e+000 0.000000000000e+000
          2.600000000000e+001 5.000000000000e+000 0.000000000000e+000
          2.600000000000e+001 7.500000000000e+000 0.000000000000e+000
          2.600000000000e+001 1.000000000000e+001 0.000000000000e+000
          2.600000000000e+001 1.250000000000e+001 0.000000000000e+000
          2.600000000000e+001 1.500000000000e+001 0.000000000000e+000
          2.600000000000e+001 1.750000000000e+001 0.000000000000e+000
          2.600000000000e+001 2.000000000000e+001 0.000000000000e+000
          2.800000000000e+001 0.000000000000e+000 0.000000000000e+000
          2.800000000000e+001 2.500000000000e+000 0.000000000000e+000
          2.800000000000e+001 5.000000000000e+000 0.000000000000e+000
          2.800000000000e+001 7.500000000000e+000 0.000000000000e+000
          2.800000000000e+001 1.000000000000e+001 0.000000000000e+000
          2.800000000000e+001 1.250000000000e+001 0.000000000000e+000
          2.800000000000e+001 1.500000000000e+001 0.000000000000e+000
          2.800000000000e+001 1.750000000000e+001 0.000000000000e+000
          2.800000000000e+001 2.000000000000e+001 0.000000000000e+000
          3.000000000000e+001 0.000000000000e+000 0.000000000000e+000
          3.000000000000e+001 2.500000000000e+000 0.000000000000e+000
          3.000000000000e+001 5.000000000000e+000 0.000000000000e+000
          3.000000000000e+001 7.500000000000e+000 0.000000000000e+000
[...]
      <PointData Scalars="CAPILLARY_PRESSURE">
        <DataArray type="Float64" Name="CAPILLARY_PRESSURE" format="ascii">
          3.721182085256e+005 3.702225342631e+005 3.702225342630e+005 3.721182085256e+005 3.702225342631e+005 3.721182085256e+005 3.702225342630e+005 3.721182085256e+005 3.702225342630e+005 3.721182085256e+005 3.702225342630e+005 3.721182085256e+005 3.702225342630e+005 3.721182085256e+005 3.702225342630e+005 3.721182085256e+005 3.702225342631e+005 3.721182085256e+005 3.683199919952e+005 3.683199919952e+005 3.683199919952e+005 3.683199919952e+005 3.683199919952e+005 3.683199919952e+005 3.683199919952e+005 3.683199919952e+005 3.683199919952e+005 3.664102159262e+005 3.664102159262e+005 3.664102159262e+005 3.664102159261e+005 3.664102159262e+005 3.664102159262e+005 3.664102159262e+005 3.664102159262e+005 3.664102159262e+005 3.644928283913e+005 3.644928283913e+005 3.644928283913e+005 3.644928283913e+005 3.644928283913e+005 3.644928283912e+005 3.644928283913e+005 3.644928283913e+005 3.644928283913e+005 3.625674301312e+005 3.625674301313e+005 3.625674301312e+005 3.625674301312e+005 3.625674301312e+005 3.625674301312e+005 3.625674301312e+005 3.625674301312e+005 3.625674301312e+005 3.606336070381e+005 3.606336070381e+005 3.606336070381e+005 3.606336070381e+005 3.606336070381e+005 3.606336070381e+005 3.606336070381e+005 3.606336070382e+005 3.606336070382e+005 3.586909329987e+005 3.586909329987e+005 3.586909329987e+005 3.586909329987e+005 3.586909329987e+005 3.586909329987e+005 3.586909329987e+005 3.586909329987e+005 3.586909329988e+005 3.567389680792e+005 3.567389680792e+005 3.567389680792e+005 3.567389680791e+005 3.567389680791e+005 3.567389680791e+005 3.567389680792e+005 3.567389680792e+005 3.567389680792e+005 3.547772569470e+005 3.547772569469e+005 3.547772569469e+005 3.547772569470e+005 3.547772569470e+005 3.547772569470e+005 3.547772569470e+005 3.547772569470e+005 3.547772569470e+005 3.528053263120e+005 3.528053263120e+005 3.528053263120e+005 3.528053263120e+005 3.528053263120e+005 3.528053263120e+005 3.528053263120e+005 3.528053263120e+005 3.528053263120e+005 3.508226820931e+005 3.508226820931e+005 3.508226820931e+005 3.508226820931e+005 3.508226820931e+005 3.508226820931e+005 3.508226820931e+005 3.508226820931e+005 3.508226820931e+005 3.488288075821e+005 3.488288075820e+005 3.488288075821e+005 3.488288075821e+005 3.488288075821e+005 3.488288075821e+005 3.488288075821e+005 3.488288075820e+005 3.488288075820e+005 3.468231621489e+005 3.468231621489e+005 3.468231621489e+005 3.468231621489e+005 3.468231621489e+005 3.468231621489e+005 3.468231621489e+005 3.468231621489e+005 3.468231621489e+005 3.448051801744e+005 3.448051801744e+005 3.448051801744e+005 3.448051801744e+005 3.448051801744e+005 3.448051801744e+005 3.448051801745e+005 3.448051801744e+005 3.448051801745e+005 3.427742700245e+005 3.427742700245e+005 3.427742700245e+005 3.427742700245e+005 3.427742700245e+005 3.427742700245e+005 3.427742700246e+005 3.427742700245e+005 3.427742700246e+005 3.407298129791e+005 3.407298129791e+005 3.407298129791e+005 3.407298129791e+005 3.407298129791e+005 3.407298129791e+005 3.407298129791e+005 3.407298129791e+005 3.407298129791e+005 3.386711620757e+005 3.386711620757e+005 3.386711620757e+005 3.386711620757e+005 3.386711620757e+005 3.386711620757e+005 3.386711620757e+005 3.386711620757e+005 3.386711620757e+005 3.365976408486e+005 3.365976408486e+005 3.365976408486e+005 3.365976408486e+005 3.365976408486e+005 3.365976408486e+005 3.365976408486e+005 3.365976408485e+005 3.365976408485e+005 3.345085419514e+005 3.345085419514e+005 3.345085419514e+005 3.345085419514e+005 3.345085419514e+005 3.345085419515e+005 3.345085419514e+005 3.345085419514e+005 3.345085419514e+005 3.324031256531e+005 3.324031256531e+005 3.324031256531e+005 3.324031256531e+005 3.324031256531e+005 3.324031256531e+005 3.324031256531e+005 3.324031256530e+005 3.324031256530e+005 3.302806181963e+005 3.302806181963e+005 3.302806181963e+005 3.302806181963e+005 3.302806181963e+005 3.302806181964e+005 3.302806181963e+005 3.302806181963e+005 3.302806181962e+005 3.281402100087e+005 3.281402100087e+005 3.281402100088e+005 3.281402100088e+005 3.281402100088e+005 3.281402100088e+005 3.281402100087e+005 3.281402100087e+005 3.281402100088e+005 3.259810537535e+005 3.259810537535e+005 3.259810537535e+005 3.259810537536e+005 3.259810537535e+005 3.259810537535e+005 3.259810537536e+005 3.259810537535e+005 3.259810537535e+005 3.238022622056e+005 3.238022622056e+005 3.238022622056e+005 3.238022622056e+005 3.238022622056e+005 3.238022622056e+005 3.238022622056e+005 3.238022622056e+005 3.238022622056e+005 3.216029059380e+005 3.216029059380e+005 3.216029059380e+005 3.216029059380e+005 3.216029059380e+005 3.216029059381e+005 3.216029059380e+005 3.216029059380e+005 3.216029059379e+005 3.193820107990e+005 3.193820107990e+005 3.193820107990e+005 3.193820107990e+005 3.193820107990e+005 3.193820107990e+005 3.193820107990e+005 3.193820107990e+005 3.193820107990e+005 3.171385551595e+005 3.171385551595e+005 3.171385551595e+005 3.171385551596e+005 3.171385551596e+005 3.171385551595e+005 3.171385551596e+005 3.171385551595e+005 3.171385551596e+005 3.148714669059e+005 3.148714669059e+005 3.148714669059e+005 3.148714669060e+005 3.148714669060e+005 3.148714669060e+005 3.148714669060e+005 3.148714669060e+005 3.148714669059e+005 3.125796201499e+005 3.125796201499e+005 3.125796201499e+005 3.125796201499e+005 3.125796201499e+005 3.125796201499e+005 3.125796201499e+005 3.125796201499e+005 3.125796201499e+005 3.102618316239e+005 3.102618316239e+005 3.102618316239e+005 3.102618316239e+005 3.102618316239e+005 3.102618316239e+005 3.102618316239e+005 3.102618316239e+005 3.102618316238e+005 3.079168567257e+005 3.079168567257e+005 3.079168567257e+005 3.079168567256e+005 3.079168567257e+005 3.079168567257e+005 3.079168567257e+005 3.079168567257e+005 3.079168567256e+005 3.055433851704e+005 3.055433851704e+005 3.055433851704e+005 3.055433851703e+005 3.055433851703e+005 3.055433851704e+005 3.055433851703e+005 3.055433851703e+005 3.055433851703e+005 3.031400362022e+005 3.031400362022e+005 3.031400362022e+005 3.031400362022e+005 3.031400362022e+005 3.031400362022e+005 3.031400362022e+005 3.031400362022e+005 3.031400362022e+005 3.007053533121e+005 3.007053533122e+005 3.007053533122e+005 3.007053533122e+005 3.007053533122e+005 3.007053533122e+005 3.007053533122e+005 3.007053533122e+005 3.007053533122e+005 2.982377983998e+005 2.982377983998e+005 2.982377983998e+005 2.982377983998e+005 2.982377983997e+005 2.982377983998e+005 2.982377983998e+005 2.982377983998e+005 2.982377983998e+005 2.957357453053e+005 2.957357453053e+005 2.957357453053e+005 2.957357453053e+005 2.957357453052e+005 2.957357453053e+005 2.957357453053e+005 2.957357453053e+005 2.957357453053e+005 2.931974726325e+005 2.931974726325e+005 2.931974726325e+005 2.931974726325e+005 2.931974726325e+005 2.931974726325e+005 2.931974726325e+005 2.931974726325e+005 2.931974726325e+005 2.906211557643e+005 2.906211557643e+005 2.906211557643e+005 2.906211557643e+005 2.906211557642e+005 2.906211557643e+005 2.906211557643e+005 2.906211557643e+005 2.906211557643e+005 2.880048579601e+005 2.880048579601e+005 2.880048579601e+005 2.880048579601e+005 2.880048579601e+005 2.880048579601e+005 2.880048579601e+005 2.880048579601e+005 2.880048579601e+005 2.853465204064e+005 2.853465204064e+005 2.853465204064e+005 2.853465204064e+005 2.853465204064e+005 2.853465204065e+005 2.853465204065e+005 2.853465204065e+005 2.853465204065e+005 2.826439510678e+005 2.826439510678e+005 2.826439510678e+005 2.826439510678e+005 2.826439510678e+005 2.826439510678e+005 2.826439510678e+005 2.826439510679e+005 2.826439510678e+005 2.798948121601e+005 2.798948121602e+005 2.798948121602e+005 2.798948121601e+005 2.798948121602e+005 2.798948121602e+005 2.798948121602e+005 2.798948121602e+005 2.798948121602e+005 2.770966060368e+005 2.770966060368e+005 2.770966060368e+005 2.770966060368e+005 2.770966060368e+005 2.770966060368e+005 2.770966060368e+005 2.770966060368e+005 2.770966060368e+005 2.742466592383e+005 2.742466592383e+005 2.742466592382e+005 2.742466592382e+005 2.742466592382e+005 2.742466592382e+005 2.742466592382e+005 2.742466592383e+005 2.742466592383e+005 2.713421044101e+005 2.713421044101e+005 2.713421044100e+005 2.713421044100e+005 2.713421044100e+005 2.713421044101e+005 2.713421044100e+005 2.713421044101e+005 2.713421044100e+005 2.683798597340e+005 2.683798597340e+005 2.683798597340e+005 2.683798597340e+005 2.683798597340e+005 2.683798597340e+005 2.683798597340e+005 2.683798597340e+005 2.683798597340e+005 2.653566054504e+005 2.653566054504e+005 2.653566054504e+005 2.653566054504e+005 2.653566054504e+005 2.653566054504e+005 2.653566054504e+005 2.653566054504e+005 2.653566054504e+005 2.622687569564e+005 2.622687569564e+005 2.622687569564e+005 2.622687569564e+005 2.622687569565e+005 2.622687569564e+005 2.622687569565e+005 2.622687569565e+005 2.622687569564e+005 2.591124338598e+005 2.591124338598e+005 2.591124338598e+005 2.591124338598e+005 2.591124338598e+005 2.591124338598e+005 2.591124338598e+005 2.591124338598e+005 2.591124338598e+005 2.558834242275e+005 2.558834242275e+005 2.558834242275e+005 2.558834242275e+005 2.558834242275e+005 2.558834242275e+005 2.558834242275e+005 2.558834242275e+005 2.558834242275e+005 2.525771430959e+005 2.525771430958e+005 2.525771430958e+005 2.525771430958e+005 2.525771430958e+005 2.525771430958e+005 2.525771430958e+005 2.525771430958e+005 2.525771430958e+005 2.491885840885e+005 2.491885840884e+005 2.491885840884e+005 2.491885840884e+005 2.491885840885e+005 2.491885840884e+005 2.491885840884e+005 2.491885840884e+005 2.491885840884e+005 2.457122627047e+005 2.457122627047e+005 2.457122627047e+005 2.457122627047e+005 2.457122627047e+005 2.457122627047e+005 2.457122627047e+005 2.457122627047e+005 2.457122627047e+005 2.421421494792e+005 2.421421494792e+005 2.421421494792e+005 2.421421494792e+005 2.421421494792e+005 2.421421494792e+005 2.421421494792e+005 2.421421494792e+005 2.421421494792e+005 2.384715907364e+005 2.384715907364e+005 2.384715907365e+005 2.384715907365e+005 2.384715907365e+005 2.384715907365e+005 2.384715907364e+005 2.384715907365e+005 2.384715907364e+005 2.346932140457e+005 2.346932140457e+005 2.346932140457e+005 2.346932140456e+005 2.346932140457e+005 2.346932140457e+005 2.346932140457e+005 2.346932140457e+005 2.346932140457e+005 2.307988146534e+005 2.307988146534e+005 2.307988146534e+005 2.307988146534e+005 2.307988146534e+005 2.307988146534e+005 2.307988146534e+005 2.307988146534e+005 2.307988146534e+005 2.267792180676e+005 2.267792180676e+005 2.267792180676e+005 2.267792180676e+005 2.267792180676e+005 2.267792180676e+005 2.267792180676e+005 2.267792180676e+005 2.267792180675e+005 2.226241124642e+005 2.226241124642e+005 2.226241124642e+005 2.226241124642e+005 2.226241124643e+005 2.226241124643e+005 2.226241124642e+005 2.226241124642e+005 2.226241124642e+005 2.183218425237e+005 2.183218425238e+005 2.183218425238e+005 2.183218425238e+005 2.183218425237e+005 2.183218425238e+005 2.183218425238e+005 2.183218425238e+005 2.183218425238e+005 2.138591534285e+005 2.138591534285e+005 2.138591534285e+005 2.138591534285e+005 2.138591534285e+005 2.138591534285e+005 2.138591534285e+005 2.138591534285e+005 2.138591534286e+005 2.092208696796e+005 2.092208696797e+005 2.092208696797e+005 2.092208696796e+005 2.092208696797e+005 2.092208696797e+005 2.092208696796e+005 2.092208696797e+005 2.092208696797e+005 2.043894875392e+005 2.043894875391e+005 2.043894875392e+005 2.043894875392e+005 2.043894875392e+005 2.043894875392e+005 2.043894875392e+005 2.043894875392e+005 2.043894875392e+005 1.993446513224e+005 1.993446513224e+005 1.993446513225e+005 1.993446513225e+005 1.993446513225e+005 1.993446513225e+005 1.993446513225e+005 1.993446513225e+005 1.993446513225e+005 1.940624709431e+005 1.940624709431e+005 1.940624709432e+005 1.940624709431e+005 1.940624709432e+005 1.940624709432e+005 1.940624709432e+005 1.940624709431e+005 1.940624709432e+005 1.885146184918e+005 1.885146184918e+005 1.885146184918e+005 1.885146184918e+005 1.885146184918e+005 1.885146184918e+005 1.885146184918e+005 1.885146184918e+005 1.885146184918e+005 1.826671108398e+005 1.826671108399e+005 1.826671108399e+005 1.826671108399e+005 1.826671108399e+005 1.826671108399e+005 1.826671108398e+005 1.826671108399e+005 1.826671108399e+005 1.764786355129e+005 1.764786355129e+005 1.764786355129e+005 1.764786355129e+005 1.764786355128e+005 1.764786355128e+005 1.764786355128e+005 1.764786355128e+005 1.764786355129e+005 1.698981940358e+005 1.698981940358e+005 1.698981940358e+005 1.698981940358e+005 1.698981940358e+005 1.698981940357e+005 1.698981940357e+005 1.698981940358e+005 1.698981940358e+005 1.628616933399e+005 1.628616933398e+005 1.628616933398e+005 1.628616933399e+005 1.628616933398e+005 1.628616933398e+005 1.628616933398e+005 1.628616933398e+005 1.628616933398e+005 1.552868573299e+005 1.552868573299e+005 1.552868573299e+005 1.552868573299e+005 1.552868573299e+005 1.552868573299e+005 1.552868573298e+005 1.552868573298e+005 1.552868573298e+005 1.470653451979e+005 1.470653451979e+005 1.470653451979e+005 1.470653451979e+005 1.470653451979e+005 1.470653451979e+005 1.470653451979e+005 1.470653451978e+005 1.470653451978e+005 1.380500004334e+005 1.380500004334e+005 1.380500004334e+005 1.380500004334e+005 1.380500004334e+005 1.380500004333e+005 1.380500004333e+005 1.380500004333e+005 1.380500004333e+005 1.280331215522e+005 1.280331215523e+005 1.280331215524e+005 1.280331215522e+005 1.280331215523e+005 1.280331215522e+005 1.280331215523e+005 1.280331215523e+005 1.280331215522e+005 1.167068653828e+005 1.167068653823e+005 1.167068653823e+005 1.167068653826e+005 1.167068653824e+005 1.167068653824e+005 1.167068653825e+005 1.167068653824e+005 1.167068653826e+005 1.035846192993e+005 1.035846193004e+005 1.035846193004e+005 1.035846193000e+005 1.035846193002e+005 1.035846193005e+005 1.035846193002e+005 1.035846193006e+005 1.035846193000e+005 8.782649450058e+004 8.782649449742e+004 8.782649449769e+004 8.782649449970e+004 8.782649449881e+004 8.782649449812e+004 8.782649449936e+004 8.782649449809e+004 8.782649450013e+004 6.779224121303e+004 6.779224122463e+004 6.779224122500e+004 6.779224121899e+004 6.779224122337e+004 6.779224122598e+004 6.779224122224e+004 6.779224122658e+004 6.779224121906e+004 3.971255759274e+004 3.971255754136e+004 3.971255754832e+004 3.971255757563e+004 3.971255755808e+004 3.971255755207e+004 3.971255757089e+004 3.971255754767e+004 3.971255757938e+004 -3.806248112072e+003 -3.806247782546e+003 -3.806247826395e+003 -3.806247978144e+003 -3.806247868067e+003 -3.806247819125e+003 -3.806247957036e+003 -3.806247770196e+003 -3.806248018079e+003 -5.376028805627e+004 -5.376028533859e+004 -5.376028422914e+004 -5.376028560175e+004 -5.376028585936e+004 -5.376028641514e+004 -5.376028631363e+004 -5.376028664650e+004 -5.376028453139e+004 -1.036982182299e+005 -1.036982172754e+005 -1.036982161181e+005 -1.036982170893e+005 -1.036982177782e+005 -1.036982177196e+005 -1.036982179386e+005 -1.036982166782e+005 -1.036982166386e+005 -1.536199216807e+005 -1.536199197877e+005 -1.536199186870e+005 -1.536199191248e+005 -1.536199187357e+005 -1.536199173245e+005 -1.536199191293e+005 -1.536199185727e+005 -1.536199180437e+005 -2.035257110704e+005 -2.035257082275e+005 -2.035257075913e+005 -2.035257058146e+005 -2.035257059717e+005 -2.035257057570e+005 -2.035257060551e+005 -2.035257047481e+005 -2.035257040294e+005 -2.534154958753e+005 -2.534154949529e+005 -2.534154939523e+005 -2.534154926281e+005 -2.534154920717e+005 -2.534154912254e+005 -2.534154913605e+005 -2.534154899826e+005 -2.534154905098e+005 -3.032893102207e+005 -3.032893100787e+005 -3.032893079309e+005 -3.032893092567e+005 -3.032893069872e+005 -3.032893065835e+005 -3.032893063247e+005 -3.032893051951e+005 -3.032893041055e+005 -3.531470489351e+005 -3.531470479495e+005 -3.531470488994e+005 -3.531470466441e+005 -3.531470463416e+005 -3.531470452093e+005 -3.531470449980e+005 -3.531470448139e+005 -3.531470437438e+005 -4.029887879361e+005 -4.029887895178e+005 -4.029887888910e+005 -4.029887887268e+005 -4.029887873111e+005 -4.029887868959e+005 -4.029887860520e+005 -4.029887846654e+005 -4.029887839928e+005 -4.528146882660e+005 -4.528146901480e+005 -4.528146908856e+005 -4.528146894322e+005 -4.528146878324e+005 -4.528146879463e+005 -4.528146863834e+005 -4.528146850401e+005 -4.528146848855e+005 -5.026250442737e+005 -5.026250466113e+005 -5.026250464697e+005 -5.026250464427e+005 -5.026250454798e+005 -5.026250437130e+005 -5.026250425303e+005 -5.026250422391e+005 -5.026250415647e+005 -5.524203023873e+005 -5.524203004461e+005 -5.524203013120e+005 -5.524203012511e+005 -5.524203009423e+005 -5.524202983879e+005 -5.524202973701e+005 -5.524202981721e+005 -5.524202978434e+005 -6.022010069321e+005 -6.022010063668e+005 -6.022010061323e+005 -6.022010060392e+005 -6.022010050745e+005 -6.022010028418e+005 -6.022010034908e+005 -6.022010028619e+005 -6.022010031939e+005 -6.519677777381e+005 -6.519677769603e+005 -6.519677769138e+005 -6.519677754871e+005 -6.519677753375e+005 -6.519677742965e+005 -6.519677740207e+005 -6.519677734324e+005 -6.519677741417e+005 -7.017212610930e+005 -7.017212601927e+005 -7.017212605639e+005 -7.017212601982e+005 -7.017212590655e+005 -7.017212589485e+005 -7.017212583297e+005 -7.017212582613e+005 -7.017212570682e+005 -7.514621165312e+005 -7.514621172025e+005 -7.514621179784e+005 -7.514621175190e+005 -7.514621167844e+005 -7.514621170867e+005 -7.514621164380e+005 -7.514621164731e+005 -7.514621162004e+005 -8.011910086725e+005 -8.011910094432e+005 -8.011910099873e+005 -8.011910094037e+005 -8.011910093593e+005 -8.011910095827e+005 -8.011910087678e+005 -8.011910092995e+005 -8.011910093696e+005 -8.509085942492e+005 -8.509085943635e+005 -8.509085947070e+005 -8.509085948336e+005 -8.509085936914e+005 -8.509085935318e+005 -8.509085938367e+005 -8.509085941021e+005 -8.509085939453e+005 -9.006155227677e+005 -9.006155235899e+005 -9.006155242218e+005 -9.006155241495e+005 -9.006155238459e+005 -9.006155231681e+005 -9.006155231680e+005 -9.006155233384e+005 -9.006155234507e+005 -9.503124444325e+005 -9.503124448642e+005 -9.503124451160e+005 -9.503124449662e+005 -9.503124450596e+005 -9.503124446009e+005 -9.503124446005e+005 -9.503124447644e+005 -9.503124446066e+005 -1.000000000000e+006 -1.000000000000e+006 -1.000000000000e+006 -1.000000000000e+006 -1.000000000000e+006 -1.000000000000e+006 -1.000000000000e+006 -1.000000000000e+006 -1.000000000000e+006 
        </DataArray>
        <DataArray type="Float64" Name="NONWET_PRESSURE" format="ascii">