<?xml version="1.0"?>
<VTKFile type="UnstructuredGrid" version="0.1" byte_order="LittleEndian">
  <UnstructuredGrid>
    <Piece NumberOfPoints="909" NumberOfCells="800">
      <Points>
        <DataArray type="Float64" NumberOfComponents="3" format="ascii">
          0.000000000000e+000 0.000000000000e+000 0.000000000000e+000
          2.000000000000e+000 0.000000000000e+000 0.000000000000e+000
          2.000000000000e+000 2.500000000000e+000 0.000000000000e+000
          0.000000000000e+000 2.500000000000e+000 0.000000000000e+000
          2.000000000000e+000 5.000000000000e+000 0.000000000000e+000
          0.000000000000e+000 5.000000000000e+000 0.000000000000e+000
          2.000000000000e+000 7.500000000000e+000 0.000000000000e+000
          0.000000000000e+000 7.500000000000e+000 0.000000000000e+000
          2.000000000000e+000 1.000000000000e+001 0.000000000000e+000
          0.000000000000e+000 1.000000000000e+001 0.000000000000e+000
          2.000000000000e+000 1.250000000000e+001 0.000000000000e+000
          0.000000000000e+000 1.250000000000e+001 0.000000000000e+000
          2.000000000000e+000 1.500000000000e+001 0.000000000000e+000
          0.000000000000e+000 1.500000000000e+001 0.000000000000e+000
          2.000000000000e+000 1.750000000000e+001 0.000000000000e+000
          0.000000000000e+000 1.750000000000e+001 0.000000000000e+000
          2.000000000000e+000 2.000000000000e+001 0.000000000000e+000
          0.000000000000e+000 2.000000000000e+001 0.000000000000e+000
          4.000000000000e+000 0.000000000000e+000 0.000000000000e+000
          4.000000000000e+000 2.500000000000e+000 0.000000000000e+000
          4.000000000000e+000 5.000000000000e+000 0.000000000000e+000
          4.000000000000e+000 7.500000000000e+000 0.000000000000e+000
          4.000000000000e+000 1.000000000000e+001 0.000000000000e+000
          4.000000000000e+000 1.250000000000e+001 0.000000000000e+000
          4.000000000000e+000 1.500000000000e+001 0.000000000000e+000
          4.000000000000e+000 1.750000000000e+001 0.000000000000e+000
          4.000000000000e+000 2.000000000000e+001 0.000000000000e+000
          6.000000000000e+000 0.000000000000e+000 0.000000000000e+000
          6.000000000000e+000 2.500000000000e+000 0.000000000000e+000
          6.000000000000e+000 5.000000000000e+000 0.000000000000e+000
          6.000000000000e+000 7.500000000000e+000 0.000000000000e+000
          6.000000000000e+000 1.000000000000e+001 0.000000000000e+000
          6.000000000000e+000 1.250000000000e+001 0.000000000000e+000
          6.000000000000e+000 1.500000000000e+001 0.000000000000e+000
          6.000000000000e+000 1.750000000000e+001 0.000000000000e+000
          6.000000000000e+000 2.000000000000e+001 0.000000000000e+000
          8.000000000000e+000 0.000000000000e+000 0.000000000000e+000
          8.000000000000e+000 2.500000000000e+000 0.000000000000e+000
          8.000000000000e+000 5.000000000000e+000 0.000000000000e+000
          8.000000000000e+000 7.500000000000e+000 0.000000000000e+000
          8.000000000000e+000 1.000000000000e+001 0.000000000000e+000
          8.000000000000e+000 1.250000000000e+001 0.000000000000e+000
          8.000000000000e+000 1.500000000000e+001 0.000000000000e+000
          8.000000000000e+000 1.750000000000e+001 0.000000000000e+000
          8.000000000000e+000 2.000000000000e+001 0.000000000000e+000
          1.000000000000e+001 0.000000000000e+000 0.000000000000e+000
          1.000000000000e+001 2.500000000000e+000 0.000000000000e+000
          1.000000000000e+001 5.000000000000e+000 0.000000000000e+000
          1.000000000000e+001 7.500000000000e+000 0.000000000000e+000
          1.000000000000e+001 1.000000000000e+001 0.000000000000e+000
          1.000000000000e+001 1.250000000000e+001 0.000000000000e+000
          1.000000000000e+001 1.500000000000e+001 0.000000000000e+000
          1.000000000000e+001 1.750000000000e+001 0.000000000000e+000
          1.000000000000e+001 2.000000000000e+001 0.000000000000e+000
          1.200000000000e+001 0.000000000000e+000 0.000000000000e+000
          1.200000000000e+001 2.500000000000e+000 0.000000000000e+000
          1.200000000000e+001 5.000000000000e+000 0.000000000000e+000
          1.200000000000e+001 7.500000000000e+000 0.000000000000e+000
          1.200000000000e+001 1.000000000000e+001 0.000000000000e+000
          1.200000000000e+001 1.250000000000e+001 0.000000000000e+000
          1.200000000000e+001 1.500000000000e+001 0.000000000000e+000
          1.200000000000e+001 1.750000000000e+001 0.000000000000e+000
          1.200000000000e+001 2.000000000000e+001 0.000000000000e+000
          1.400000000000e+001 0.000000000000e+000 0.000000000000e+000
          1.400000000000e+001 2.500000000000e+000 0.000000000000e+000
          1.400000000000e+001 5.000000000000e+000 0.000000000000e+000
          1.400000000000e+001 7.500000000000e+000 0.000000000000e+000
          1.400000000000e+001 1.000000000000e+001 0.000000000000e+000
          1.400000000000e+001 1.250000000000e+001 0.000000000000e+000
          1.400000000000e+001 1.500000000000e+001 0.000000000000e+000
          1.400000000000e+001 1.750000000000e+001 0.000000000000e+000
          1.400000000000e+001 2.000000000000e+001 0.000000000000e+000
          1.600000000000e+001 0.000000000000e+000 0.000000000000e+000
          1.600000000000e+001 2.500000000000e+000 0.000000000000e+000
          1.600000000000e+001 5.000000000000e+000 0.000000000000e+000
          1.600000000000e+001 7.500000000000e+000 0.000000000000e+000
          1.600000000000e+001 1.000000000000e+001 0.000000000000e+000
          1.600000000000e+001 1.250000000000e+001 0.000000000000e+000
          1.600000000000e+001 1.500000000000e+001 0.000000000000e+000
          1.600000000000e+001 1.750000000000e+001 0.000000000000e+000
          1.600000000000e+001 2.000000000000e+001 0.000000000000e+000
          1.800000000000e+001 0.000000000000e+000 0.000000000000e+000
          1.800000000000e+001 2.500000000000e+000 0.000000000000e+000
          1.800000000000e+001 5.000000000000e+000 0.000000000000e+000
          1.800000000000e+001 7.500000000000e+000 0.000000000000e+000
          1.800000000000e+001 1.000000000000e+001 0.000000000000e+000
          1.800000000000e+001 1.250000000000e+001 0.000000000000e+000
          1.800000000000e+001 1.500000000000e+001 0.000000000000e+000
          1.800000000000e+001 1.750000000000e+001 0.000000000000e+000
          1.800000000000e+001 2.000000000000e+001 0.000000000000e+000
          2.000000000000e+001 0.000000000000e+000 0.000000000000e+000
          2.000000000000e+001 2.500000000000e+000 0.000000000000e+000
          2.000000000000e+001 5.000000000000e+000 0.000000000000e+000
          2.000000000000e+001 7.500000000000e+000 0.000000000000e+000
          2.000000000000e+001 1.000000000000e+001 0.000000000000e+000
          2.000000000000e+001 1.250000000000e+001 0.000000000000e+000
          2.000000000000e+001 1.500000000000e+001 0.000000000000e+000
          2.000000000000e+001 1.750000000000e+001 0.000000000000e+000
          2.000000000000e+001 2.000000000000e+001 0.000000000000e+000
          2.200000000000e+001 0.000000000000e+000 0.000000000000e+000
          2.200000000000e+001 2.500000000000e+000 0.000000000000e+000
          2.200000000000e+001 5.000000000000e+000 0.000000000000e+000
          2.200000000000e+001 7.500000000000e+000 0.000000000000e+000
          2.200000000000e+001 1.000000000000e+001 0.000000000000e+000
          2.200000000000e+001 1.250000000000e+001 0.000000000000e+000
          2.200000000000e+001 1.500000000000e+001 0.000000000000e+000
          2.200000000000e+001 1.750000000000e+001 0.000000000000e+000
          2.200000000000e+001 2.000000000000e+001 0.000000000000e+000
          2.400000000000e+001 0.000000000000e+000 0.000000000000e+000
          2.400000000000e+001 2.500000000000e+000 0.000000000000e+000
          2.400000000000e+001 5.000000000000e+000 0.000000000000e+000
          2.400000000000e+001 7.500000000000e+000 0.000000000000e+000
          2.400000000000e+001 1.000000000000e+001 0.000000000000e+000
          2.400000000000e+001 1.250000000000e+001 0.000000000000e+000
          2.400000000000e+001 1.500000000000e+001 0.000000000000e+000
          2.400000000000e+001 1.750000000000e+001 0.000000000000e+000
          2.400000000000e+001 2.000000000000e+001 0.000000000000e+000
          2.600000000000e+001 0.000000000000e+000 0.000000000000e+000
          2.600000000000e+001 2.500000000000e+000 0.000000000000e+000
          2.600000000000e+001 5.000000000000e+000 0.000000000000e+000
          2.600000000000e+001 7.500000000000e+000 0.000000000000e+000
          2.600000000000e+001 1.000000000000e+001 0.000000000000e+000
          2.600000000000e+001 1.250000000000e+001 0.000000000000e+000
          2.600000000000e+001 1.500000000000e+001 0.000000000000e+000
          2.600000000000e+001 1.750000000000e+001 0.000000000000e+000
          2.600000000000e+001 2.000000000000e+001 0.000000000000e+000
          2.800000000000e+001 0.000000000000e+000 0.000000000000e+000
          2.800000000000e+001 2.500000000000e+000 0.000000000000e+000
          2.800000000000e+001 5.000000000000e+000 0.000000000000e+000
          2.800000000000e+001 7.500000000000e+000 0.000000000000e+000
          2.800000000000e+001 1.000000000000e+001 0.000000000000e+000
          2.800000000000e+001 1.250000000000e+001 0.000000000000e+000
          2.800000000000e+001 1.500000000000e+001 0.000000000000e+000
          2.800000000000e+001 1.750000000000e+001 0.000000000000e+000
          2.800000000000e+001 2.000000000000e+001 0.000000000000e+000
          3.000000000000e+001 0.000000000000e+000 0.000000000000e+000
          3.000000000000e+001 2.500000000000e+000 0.000000000000e+000
          3.000000000000e+001 5.000000000000e+000 0.000000000000e+000
          3.000000000000e+001 7.500000000000e+000 0.000000000000e+000
[...]
      <PointData Scalars="CAPILLARY_PRESSURE">
        <DataArray type="Float64" Name="CAPILLARY_PRESSURE" format="ascii">
          3.717958945557e+005 3.698981899246e+005 3.698981899246e+005 3.717958945557e+005 3.698981899246e+005 3.717958945557e+005 3.698981899246e+005 3.717958945557e+005 3.698981899246e+005 3.717958945557e+005 3.698981899246e+005 3.717958945557e+005 3.698981899246e+005 3.717958945557e+005 3.698981899246e+005 3.717958945557e+005 3.698981899246e+005 3.717958945557e+005 3.679937402434e+005 3.679937402434e+005 3.679937402434e+005 3.679937402434e+005 3.679937402434e+005 3.679937402434e+005 3.679937402434e+005 3.679937402434e+005 3.679937402434e+005 3.660821481129e+005 3.660821481129e+005 3.660821481129e+005 3.660821481129e+005 3.660821481129e+005 3.660821481129e+005 3.660821481129e+005 3.660821481129e+005 3.660821481129e+005 3.641630632141e+005 3.641630632141e+005 3.641630632141e+005 3.641630632141e+005 3.641630632141e+005 3.641630632141e+005 3.641630632141e+005 3.641630632141e+005 3.641630632141e+005 3.622361141763e+005 3.622361141763e+005 3.622361141763e+005 3.622361141763e+005 3.622361141763e+005 3.622361141763e+005 3.622361141763e+005 3.622361141763e+005 3.622361141763e+005 3.603009041993e+005 3.603009041993e+005 3.603009041993e+005 3.603009041993e+005 3.603009041993e+005 3.603009041993e+005 3.603009041993e+005 3.603009041993e+005 3.603009041993e+005 3.583570145282e+005 3.583570145282e+005 3.583570145282e+005 3.583570145282e+005 3.583570145282e+005 3.583570145282e+005 3.583570145282e+005 3.583570145282e+005 3.583570145282e+005 3.564040067998e+005 3.564040067998e+005 3.564040067998e+005 3.564040067998e+005 3.564040067998e+005 3.564040067998e+005 3.564040067998e+005 3.564040067998e+005 3.564040067998e+005 3.544414234618e+005 3.544414234618e+005 3.544414234618e+005 3.544414234618e+005 3.544414234618e+005 3.544414234618e+005 3.544414234618e+005 3.544414234618e+005 3.544414234618e+005 3.524687877046e+005 3.524687877046e+005 3.524687877046e+005 3.524687877046e+005 3.524687877046e+005 3.524687877046e+005 3.524687877046e+005 3.524687877045e+005 3.524687877046e+005 3.504856024320e+005 3.504856024319e+005 3.504856024320e+005 3.504856024320e+005 3.504856024320e+005 3.504856024320e+005 3.504856024320e+005 3.504856024320e+005 3.504856024320e+005 3.484913486447e+005 3.484913486446e+005 3.484913486447e+005 3.484913486447e+005 3.484913486446e+005 3.484913486447e+005 3.484913486447e+005 3.484913486447e+005 3.484913486446e+005 3.464854839310e+005 3.464854839310e+005 3.464854839309e+005 3.464854839310e+005 3.464854839310e+005 3.464854839310e+005 3.464854839309e+005 3.464854839310e+005 3.464854839309e+005 3.444674411469e+005 3.444674411469e+005 3.444674411469e+005 3.444674411469e+005 3.444674411469e+005 3.444674411469e+005 3.444674411469e+005 3.444674411469e+005 3.444674411469e+005 3.424366272178e+005 3.424366272178e+005 3.424366272178e+005 3.424366272178e+005 3.424366272178e+005 3.424366272178e+005 3.424366272178e+005 3.424366272178e+005 3.424366272178e+005 3.403924219704e+005 3.403924219704e+005 3.403924219704e+005 3.403924219704e+005 3.403924219704e+005 3.403924219704e+005 3.403924219704e+005 3.403924219704e+005 3.403924219704e+005 3.383341769292e+005 3.383341769293e+005 3.383341769293e+005 3.383341769293e+005 3.383341769293e+005 3.383341769292e+005 3.383341769292e+005 3.383341769293e+005 3.383341769292e+005 3.362612140334e+005 3.362612140334e+005 3.362612140334e+005 3.362612140334e+005 3.362612140334e+005 3.362612140334e+005 3.362612140334e+005 3.362612140334e+005 3.362612140334e+005 3.341728242493e+005 3.341728242493e+005 3.341728242493e+005 3.341728242493e+005 3.341728242493e+005 3.341728242493e+005 3.341728242493e+005 3.341728242493e+005 3.341728242493e+005 3.320682660626e+005 3.320682660626e+005 3.320682660626e+005 3.320682660626e+005 3.320682660626e+005 3.320682660626e+005 3.320682660626e+005 3.320682660626e+005 3.320682660626e+005 3.299467638350e+005 3.299467638350e+005 3.299467638350e+005 3.299467638350e+005 3.299467638350e+005 3.299467638350e+005 3.299467638350e+005 3.299467638350e+005 3.299467638350e+005 3.278075060149e+005 3.278075060149e+005 3.278075060149e+005 3.278075060149e+005 3.278075060149e+005 3.278075060149e+005 3.278075060149e+005 3.278075060149e+005 3.278075060149e+005 3.256496431876e+005 3.256496431876e+005 3.256496431876e+005 3.256496431876e+005 3.256496431876e+005 3.256496431876e+005 3.256496431876e+005 3.256496431876e+005 3.256496431876e+005 3.234722859521e+005 3.234722859521e+005 3.234722859521e+005 3.234722859521e+005 3.234722859521e+005 3.234722859521e+005 3.234722859521e+005 3.234722859521e+005 3.234722859521e+005 3.212745026067e+005 3.212745026066e+005 3.212745026066e+005 3.212745026066e+005 3.212745026066e+005 3.212745026066e+005 3.212745026066e+005 3.212745026066e+005 3.212745026066e+005 3.190553166255e+005 3.190553166255e+005 3.190553166255e+005 3.190553166255e+005 3.190553166255e+005 3.190553166255e+005 3.190553166255e+005 3.190553166255e+005 3.190553166255e+005 3.168137039049e+005 3.168137039049e+005 3.168137039049e+005 3.168137039049e+005 3.168137039049e+005 3.168137039049e+005 3.168137039049e+005 3.168137039049e+005 3.168137039049e+005 3.145485897540e+005 3.145485897540e+005 3.145485897540e+005 3.145485897540e+005 3.145485897540e+005 3.145485897540e+005 3.145485897540e+005 3.145485897540e+005 3.145485897540e+005 3.122588456017e+005 3.122588456017e+005 3.122588456017e+005 3.122588456017e+005 3.122588456017e+005 3.122588456017e+005 3.122588456017e+005 3.122588456017e+005 3.122588456017e+005 3.099432853896e+005 3.099432853896e+005 3.099432853896e+005 3.099432853896e+005 3.099432853896e+005 3.099432853896e+005 3.099432853896e+005 3.099432853896e+005 3.099432853896e+005 3.076006616114e+005 3.076006616114e+005 3.076006616114e+005 3.076006616114e+005 3.076006616114e+005 3.076006616114e+005 3.076006616114e+005 3.076006616114e+005 3.076006616114e+005 3.052296609607e+005 3.052296609607e+005 3.052296609607e+005 3.052296609607e+005 3.052296609607e+005 3.052296609607e+005 3.052296609607e+005 3.052296609607e+005 3.052296609607e+005 3.028288995370e+005 3.028288995369e+005 3.028288995370e+005 3.028288995369e+005 3.028288995370e+005 3.028288995370e+005 3.028288995370e+005 3.028288995370e+005 3.028288995370e+005 3.003969175568e+005 3.003969175568e+005 3.003969175567e+005 3.003969175568e+005 3.003969175568e+005 3.003969175567e+005 3.003969175568e+005 3.003969175567e+005 3.003969175568e+005 2.979321735073e+005 2.979321735073e+005 2.979321735073e+005 2.979321735073e+005 2.979321735073e+005 2.979321735073e+005 2.979321735073e+005 2.979321735073e+005 2.979321735073e+005 2.954330376711e+005 2.954330376711e+005 2.954330376711e+005 2.954330376711e+005 2.954330376711e+005 2.954330376711e+005 2.954330376711e+005 2.954330376711e+005 2.954330376711e+005 2.928977849379e+005 2.928977849379e+005 2.928977849379e+005 2.928977849379e+005 2.928977849379e+005 2.928977849379e+005 2.928977849379e+005 2.928977849379e+005 2.928977849379e+005 2.903245868093e+005 2.903245868094e+005 2.903245868093e+005 2.903245868094e+005 2.903245868093e+005 2.903245868094e+005 2.903245868093e+005 2.903245868094e+005 2.903245868093e+005 2.877115024833e+005 2.877115024833e+005 2.877115024833e+005 2.877115024833e+005 2.877115024833e+005 2.877115024833e+005 2.877115024833e+005 2.877115024833e+005 2.877115024833e+005 2.850564688892e+005 2.850564688892e+005 2.850564688892e+005 2.850564688892e+005 2.850564688892e+005 2.850564688892e+005 2.850564688891e+005 2.850564688892e+005 2.850564688891e+005 2.823572895215e+005 2.823572895215e+005 2.823572895215e+005 2.823572895215e+005 2.823572895215e+005 2.823572895215e+005 2.823572895215e+005 2.823572895215e+005 2.823572895215e+005 2.796116218935e+005 2.796116218935e+005 2.796116218935e+005 2.796116218935e+005 2.796116218935e+005 2.796116218935e+005 2.796116218935e+005 2.796116218935e+005 2.796116218935e+005 2.768169633995e+005 2.768169633995e+005 2.768169633995e+005 2.768169633995e+005 2.768169633995e+005 2.768169633995e+005 2.768169633995e+005 2.768169633995e+005 2.768169633995e+005 2.739706353378e+005 2.739706353378e+005 2.739706353378e+005 2.739706353378e+005 2.739706353377e+005 2.739706353378e+005 2.739706353378e+005 2.739706353378e+005 2.739706353378e+005 2.710697647960e+005 2.710697647960e+005 2.710697647960e+005 2.710697647960e+005 2.710697647960e+005 2.710697647960e+005 2.710697647959e+005 2.710697647960e+005 2.710697647960e+005 2.681112640459e+005 2.681112640459e+005 2.681112640459e+005 2.681112640459e+005 2.681112640459e+005 2.681112640459e+005 2.681112640459e+005 2.681112640459e+005 2.681112640459e+005 2.650918070212e+005 2.650918070212e+005 2.650918070212e+005 2.650918070212e+005 2.650918070212e+005 2.650918070212e+005 2.650918070212e+005 2.650918070212e+005 2.650918070212e+005 2.620078023635e+005 2.620078023635e+005 2.620078023635e+005 2.620078023635e+005 2.620078023635e+005 2.620078023635e+005 2.620078023635e+005 2.620078023635e+005 2.620078023635e+005 2.588553624143e+005 2.588553624143e+005 2.588553624143e+005 2.588553624143e+005 2.588553624143e+005 2.588553624143e+005 2.588553624143e+005 2.588553624143e+005 2.588553624143e+005 2.556302673898e+005 2.556302673898e+005 2.556302673898e+005 2.556302673898e+005 2.556302673898e+005 2.556302673898e+005 2.556302673898e+005 2.556302673898e+005 2.556302673898e+005 2.523279238024e+005 2.523279238024e+005 2.523279238024e+005 2.523279238024e+005 2.523279238024e+005 2.523279238024e+005 2.523279238024e+005 2.523279238024e+005 2.523279238024e+005 2.489433159731e+005 2.489433159731e+005 2.489433159731e+005 2.489433159731e+005 2.489433159731e+005 2.489433159731e+005 2.489433159731e+005 2.489433159731e+005 2.489433159731e+005 2.454709491935e+005 2.454709491935e+005 2.454709491935e+005 2.454709491935e+005 2.454709491935e+005 2.454709491935e+005 2.454709491935e+005 2.454709491935e+005 2.454709491935e+005 2.419047827330e+005 2.419047827330e+005 2.419047827330e+005 2.419047827330e+005 2.419047827330e+005 2.419047827330e+005 2.419047827330e+005 2.419047827330e+005 2.419047827330e+005 2.382381504112e+005 2.382381504112e+005 2.382381504112e+005 2.382381504112e+005 2.382381504112e+005 2.382381504112e+005 2.382381504112e+005 2.382381504112e+005 2.382381504112e+005 2.344636658321e+005 2.344636658321e+005 2.344636658321e+005 2.344636658320e+005 2.344636658321e+005 2.344636658320e+005 2.344636658321e+005 2.344636658321e+005 2.344636658321e+005 2.305731085496e+005 2.305731085496e+005 2.305731085496e+005 2.305731085496e+005 2.305731085496e+005 2.305731085496e+005 2.305731085496e+005 2.305731085496e+005 2.305731085496e+005 2.265572863242e+005 2.265572863242e+005 2.265572863242e+005 2.265572863242e+005 2.265572863242e+005 2.265572863242e+005 2.265572863242e+005 2.265572863242e+005 2.265572863242e+005 2.224058671238e+005 2.224058671238e+005 2.224058671238e+005 2.224058671238e+005 2.224058671238e+005 2.224058671238e+005 2.224058671238e+005 2.224058671238e+005 2.224058671238e+005 2.181071724516e+005 2.181071724516e+005 2.181071724516e+005 2.181071724516e+005 2.181071724516e+005 2.181071724516e+005 2.181071724516e+005 2.181071724516e+005 2.181071724516e+005 2.136479206938e+005 2.136479206939e+005 2.136479206939e+005 2.136479206939e+005 2.136479206938e+005 2.136479206938e+005 2.136479206938e+005 2.136479206938e+005 2.136479206939e+005 2.090129050903e+005 2.090129050903e+005 2.090129050903e+005 2.090129050903e+005 2.090129050903e+005 2.090129050903e+005 2.090129050903e+005 2.090129050903e+005 2.090129050903e+005 2.041845850361e+005 2.041845850361e+005 2.041845850361e+005 2.041845850361e+005 2.041845850361e+005 2.041845850361e+005 2.041845850362e+005 2.041845850361e+005 2.041845850361e+005 1.991425607742e+005 1.991425607742e+005 1.991425607742e+005 1.991425607742e+005 1.991425607742e+005 1.991425607742e+005 1.991425607742e+005 1.991425607742e+005 1.991425607742e+005 1.938628885756e+005 1.938628885756e+005 1.938628885756e+005 1.938628885756e+005 1.938628885756e+005 1.938628885756e+005 1.938628885756e+005 1.938628885756e+005 1.938628885756e+005 1.883171736392e+005 1.883171736392e+005 1.883171736392e+005 1.883171736392e+005 1.883171736392e+005 1.883171736392e+005 1.883171736392e+005 1.883171736392e+005 1.883171736392e+005 1.824713467085e+005 1.824713467085e+005 1.824713467085e+005 1.824713467085e+005 1.824713467085e+005 1.824713467085e+005 1.824713467085e+005 1.824713467085e+005 1.824713467085e+005 1.762839799479e+005 1.762839799479e+005 1.762839799479e+005 1.762839799479e+005 1.762839799479e+005 1.762839799479e+005 1.762839799479e+005 1.762839799479e+005 1.762839799479e+005 1.697039136469e+005 1.697039136469e+005 1.697039136469e+005 1.697039136469e+005 1.697039136469e+005 1.697039136469e+005 1.697039136469e+005 1.697039136469e+005 1.697039136468e+005 1.626668208755e+005 1.626668208756e+005 1.626668208756e+005 1.626668208755e+005 1.626668208756e+005 1.626668208755e+005 1.626668208755e+005 1.626668208755e+005 1.626668208755e+005 1.550900789432e+005 1.550900789432e+005 1.550900789432e+005 1.550900789432e+005 1.550900789432e+005 1.550900789431e+005 1.550900789432e+005 1.550900789431e+005 1.550900789431e+005 1.468648323632e+005 1.468648323632e+005 1.468648323632e+005 1.468648323631e+005 1.468648323631e+005 1.468648323631e+005 1.468648323631e+005 1.468648323631e+005 1.468648323631e+005 1.378431668926e+005 1.378431668926e+005 1.378431668926e+005 1.378431668926e+005 1.378431668926e+005 1.378431668925e+005 1.378431668925e+005 1.378431668925e+005 1.378431668925e+005 1.278162274314e+005 1.278162274315e+005 1.278162274315e+005 1.278162274315e+005 1.278162274315e+005 1.278162274315e+005 1.278162274314e+005 1.278162274314e+005 1.278162274314e+005 1.164742761013e+005 1.164742761009e+005 1.164742761009e+005 1.164742761011e+005 1.164742761010e+005 1.164742761008e+005 1.164742761009e+005 1.164742761008e+005 1.164742761009e+005 1.033273842530e+005 1.033273842545e+005 1.033273842545e+005 1.033273842538e+005 1.033273842542e+005 1.033273842545e+005 1.033273842539e+005 1.033273842544e+005 1.033273842535e+005 8.752913773114e+004 8.752913772593e+004 8.752913772601e+004 8.752913772884e+004 8.752913772718e+004 8.752913772611e+004 8.752913772768e+004 8.752913772547e+004 8.752913772878e+004 6.742393963262e+004 6.742393965613e+004 6.742393965614e+004 6.742393964298e+004 6.742393965119e+004 6.742393965584e+004 6.742393964757e+004 6.742393965659e+004 6.742393964150e+004 3.919651551106e+004 3.919651540486e+004 3.919651540870e+004 3.919651546946e+004 3.919651543233e+004 3.919651541454e+004 3.919651545190e+004 3.919651540556e+004 3.919651547276e+004 -4.516099025726e+003 -4.516098570756e+003 -4.516098620596e+003 -4.516098849650e+003 -4.516098692760e+003 -4.516098623605e+003 -4.516098804934e+003 -4.516098565869e+003 -4.516098896060e+003 -5.444382785762e+004 -5.444382512268e+004 -5.444382400803e+004 -5.444382539343e+004 -5.444382564951e+004 -5.444382619537e+004 -5.444382609158e+004 -5.444382643410e+004 -5.444382431752e+004 -1.043531428877e+005 -1.043531419326e+005 -1.043531407736e+005 -1.043531417450e+005 -1.043531424343e+005 -1.043531423737e+005 -1.043531425920e+005 -1.043531413336e+005 -1.043531412950e+005 -1.542434471085e+005 -1.542434452149e+005 -1.542434441136e+005 -1.542434445515e+005 -1.542434441621e+005 -1.542434427502e+005 -1.542434445550e+005 -1.542434439991e+005 -1.542434434705e+005 -2.041152024992e+005 -2.041151996560e+005 -2.041151990195e+005 -2.041151972426e+005 -2.041151973997e+005 -2.041151971848e+005 -2.041151974828e+005 -2.041151961762e+005 -2.041151954576e+005 -2.539692051083e+005 -2.539692041857e+005 -2.539692031849e+005 -2.539692018608e+005 -2.539692013044e+005 -2.539692004580e+005 -2.539692005931e+005 -2.539691992153e+005 -2.539691997426e+005 -3.038060916942e+005 -3.038060915521e+005 -3.038060894044e+005 -3.038060907302e+005 -3.038060884607e+005 -3.038060880571e+005 -3.038060877983e+005 -3.038060866688e+005 -3.038060855791e+005 -3.536264232045e+005 -3.536264222190e+005 -3.536264231688e+005 -3.536264209135e+005 -3.536264206111e+005 -3.536264194788e+005 -3.536264192675e+005 -3.536264190834e+005 -3.536264180136e+005 -4.034306059372e+005 -4.034306075190e+005 -4.034306068922e+005 -4.034306067279e+005 -4.034306053122e+005 -4.034306048970e+005 -4.034306040532e+005 -4.034306026666e+005 -4.034306019941e+005 -4.532190556828e+005 -4.532190575649e+005 -4.532190583025e+005 -4.532190568491e+005 -4.532190552493e+005 -4.532190553631e+005 -4.532190538003e+005 -4.532190524571e+005 -4.532190523025e+005 -5.029921833794e+005 -5.029921857169e+005 -5.029921855753e+005 -5.029921855483e+005 -5.029921845853e+005 -5.029921828186e+005 -5.029921816358e+005 -5.029921813447e+005 -5.029921806703e+005 -5.527504360343e+005 -5.527504340930e+005 -5.527504349589e+005 -5.527504348980e+005 -5.527504345892e+005 -5.527504320348e+005 -5.527504310170e+005 -5.527504318190e+005 -5.527504314904e+005 -6.024943033812e+005 -6.024943028159e+005 -6.024943025814e+005 -6.024943024884e+005 -6.024943015236e+005 -6.024942992908e+005 -6.024942999398e+005 -6.024942993110e+005 -6.024942996430e+005 -6.522243413313e+005 -6.522243405535e+005 -6.522243405071e+005 -6.522243390804e+005 -6.522243389308e+005 -6.522243378897e+005 -6.522243376140e+005 -6.522243370257e+005 -6.522243377350e+005 -7.019411449823e+005 -7.019411440820e+005 -7.019411444533e+005 -7.019411440876e+005 -7.019411429549e+005 -7.019411428378e+005 -7.019411422191e+005 -7.019411421508e+005 -7.019411409576e+005 -7.516453409444e+005 -7.516453416158e+005 -7.516453423916e+005 -7.516453419322e+005 -7.516453411976e+005 -7.516453414998e+005 -7.516453408513e+005 -7.516453408863e+005 -7.516453406136e+005 -8.013375772742e+005 -8.013375780448e+005 -8.013375785890e+005 -8.013375780053e+005 -8.013375779608e+005 -8.013375781843e+005 -8.013375773693e+005 -8.013375779010e+005 -8.013375779711e+005 -8.510185063462e+005 -8.510185064604e+005 -8.510185068040e+005 -8.510185069305e+005 -8.510185057883e+005 -8.510185056287e+005 -8.510185059336e+005 -8.510185061990e+005 -8.510185060421e+005 -9.006887815016e+005 -9.006887823238e+005 -9.006887829557e+005 -9.006887828833e+005 -9.006887825798e+005 -9.006887819019e+005 -9.006887819018e+005 -9.006887820722e+005 -9.006887821845e+005 -9.503490618770e+005 -9.503490623088e+005 -9.503490625605e+005 -9.503490624107e+005 -9.503490625042e+005 -9.503490620454e+005 -9.503490620450e+005 -9.503490622089e+005 -9.503490620511e+005 -1.000000000000e+006 -1.000000000000e+006 -1.000000000000e+006 -1.000000000000e+006 -1.000000000000e+006 -1.000000000000e+006 -1.000000000000e+006 -1.000000000000e+006 -1.000000000000e+006 
        </DataArray>
        <DataArray type="Float64" Name="NONWET_PRESSURE" format="ascii">