<?xml version="1.0"?>
<VTKFile type="UnstructuredGrid" version="0.1" byte_order="LittleEndian">
  <UnstructuredGrid>
    <Piece NumberOfPoints="909" NumberOfCells="800">
      <Points>
        <DataArray type="Float64" NumberOfComponents="3" format="ascii">
          0.000000000000e+000 0.000000000000e+000 0.000000000000e+000
          2.000000000000e+000 0.000000000000e+000 0.000000000000e+000
          2.000000000000e+000 2.500000000000e+000 0.000000000000e+000
          0.000000000000e+000 2.500000000000e+000 0.000000000000e+000
          2.000000000000e+000 5.000000000000e+000 0.000000000000e+000
          0.000000000000e+000 5.000000000000e+000 0.000000000000e+000
          2.000000000000e+000 7.500000000000e+000 0.000000000000e+000
          0.000000000000e+000 7.500000000000e+000 0.000000000000e+000
          2.000000000000e+000 1.000000000000e+001 0.000000000000e+000
          0.000000000000e+000 1.000000000000e+001 0.000000000000e+000
          2.000000000000e+000 1.250000000000e+001 0.000000000000e+000
          0.000000000000e+000 1.250000000000e+001 0.000000000000e+000
          2.000000000000e+000 1.500000000000e+001 0.000000000000e+000
          0.000000000000e+000 1.500000000000e+001 0.000000000000e+000
          2.000000000000e+000 1.750000000000e+001 0.000000000000e+000
          0.000000000000e+000 1.750000000000e+001 0.000000000000e+000
          2.000000000000e+000 2.000000000000e+001 0.000000000000e+000
          0.000000000000e+000 2.000000000000e+001 0.000000000000e+000
          4.000000000000e+000 0.000000000000e+000 0.000000000000e+000
          4.000000000000e+000 2.500000000000e+000 0.000000000000e+000
          4.000000000000e+000 5.000000000000e+000 0.000000000000e+000
          4.000000000000e+000 7.500000000000e+000 0.000000000000e+000
          4.000000000000e+000 1.000000000000e+001 0.000000000000e+000
          4.000000000000e+000 1.250000000000e+001 0.000000000000e+000
          4.000000000000e+000 1.500000000000e+001 0.000000000000e+000
          4.000000000000e+000 1.750000000000e+001 0.000000000000e+000
          4.000000000000e+000 2.000000000000e+001 0.000000000000e+000
          6.000000000000e+000 0.000000000000e+000 0.000000000000e+000
          6.000000000000e+000 2.500000000000e+000 0.000000000000e+000
          6.000000000000e+000 5.000000000000e+000 0.000000000000e+000
          6.000000000000e+000 7.500000000000e+000 0.000000000000e+000
          6.000000000000e+000 1.000000000000e+001 0.000000000000e+000
          6.000000000000e+000 1.250000000000e+001 0.000000000000e+000
          6.000000000000e+000 1.500000000000e+001 0.000000000000e+000
          6.000000000000e+000 1.750000000000e+001 0.000000000000e+000
          6.000000000000e+000 2.000000000000e+001 0.000000000000e+000
          8.000000000000e+000 0.000000000000e+000 0.000000000000e+000
          8.000000000000e+000 2.500000000000e+000 0.000000000000e+000
          8.000000000000e+000 5.000000000000e+000 0.000000000000e+000
          8.000000000000e+000 7.500000000000e+000 0.000000000000e+000
          8.000000000000e+000 1.000000000000e+001 0.000000000000e+000
          8.000000000000e+000 1.250000000000e+001 0.000000000000e+000
          8.000000000000e+000 1.500000000000e+001 0.000000000000e+000
          8.000000000000e+000 1.750000000000e+001 0.000000000000e+000
          8.000000000000e+000 2.000000000000e+001 0.000000000000e+000
          1.000000000000e+001 0.000000000000e+000 0.000000000000e+000
          1.000000000000e+001 2.500000000000e+000 0.000000000000e+000
          1.000000000000e+001 5.000000000000e+000 0.000000000000e+000
          1.000000000000e+001 7.500000000000e+000 0.000000000000e+000
          1.000000000000e+001 1.000000000000e+001 0.000000000000e+000
          1.000000000000e+001 1.250000000000e+001 0.000000000000e+000
          1.000000000000e+001 1.500000000000e+001 0.000000000000e+000
          1.000000000000e+001 1.750000000000e+001 0.000000000000e+000
          1.000000000000e+001 2.000000000000e+001 0.000000000000e+000
          1.200000000000e+001 0.000000000000e+000 0.000000000000e+000
          1.200000000000e+001 2.500000000000e+000 0.000000000000e+000
          1.200000000000e+001 5.000000000000e+000 0.000000000000e+000
          1.200000000000e+001 7.500000000000e+000 0.000000000000e+000
          1.200000000000e+001 1.000000000000e+001 0.000000000000e+000
          1.200000000000e+001 1.250000000000e+001 0.000000000000e+000
          1.200000000000e+001 1.500000000000e+001 0.000000000000e+000
          1.200000000000e+001 1.750000000000e+001 0.000000000000e+000
          1.200000000000e+001 2.000000000000e+001 0.000000000000e+000
          1.400000000000e+001 0.000000000000e+000 0.000000000000e+000
          1.400000000000e+001 2.500000000000e+000 0.000000000000e+000
          1.400000000000e+001 5.000000000000e+000 0.000000000000e+000
          1.400000000000e+001 7.500000000000e+000 0.000000000000e+000
          1.400000000000e+001 1.000000000000e+001 0.000000000000e+000
          1.400000000000e+001 1.250000000000e+001 0.000000000000e+000
          1.400000000000e+001 1.500000000000e+001 0.000000000000e+000
          1.400000000000e+001 1.750000000000e+001 0.000000000000e+000
          1.400000000000e+001 2.000000000000e+001 0.000000000000e+000
          1.600000000000e+001 0.000000000000e+000 0.000000000000e+000
          1.600000000000e+001 2.500000000000e+000 0.000000000000e+000
          1.600000000000e+001 5.000000000000e+000 0.000000000000e+000
          1.600000000000e+001 7.500000000000e+000 0.000000000000e+000
          1.600000000000e+001 1.000000000000e+001 0.000000000000e+000
          1.600000000000e+001 1.250000000000e+001 0.000000000000e+000
          1.600000000000e+001 1.500000000000e+001 0.000000000000e+000
          1.600000000000e+001 1.750000000000e+001 0.000000000000e+000
          1.600000000000e+001 2.000000000000e+001 0.000000000000e+000
          1.800000000000e+001 0.000000000000e+000 0.000000000000e+000
          1.800000000000e+001 2.500000000000e+000 0.000000000000e+000
          1.800000000000e+001 5.000000000000e+000 0.000000000000e+000
          1.800000000000e+001 7.500000000000e+000 0.000000000000e+000
          1.800000000000e+001 1.000000000000e+001 0.000000000000e+000
          1.800000000000e+001 1.250000000000e+001 0.000000000000e+000
          1.800000000000e+001 1.500000000000e+001 0.000000000000e+000
          1.800000000000e+001 1.750000000000e+001 0.000000000000e+000
          1.800000000000e+001 2.000000000000e+001 0.000000000000e+000
          2.000000000000e+001 0.000000000000e+000 0.000000000000e+000
          2.000000000000e+001 2.500000000000e+000 0.000000000000e+000
          2.000000000000e+001 5.000000000000e+000 0.000000000000e+000
          2.000000000000e+001 7.500000000000e+000 0.000000000000e+000
          2.000000000000e+001 1.000000000000e+001 0.000000000000e+000
          2.000000000000e+001 1.250000000000e+001 0.000000000000e+000
          2.000000000000e+001 1.500000000000e+001 0.000000000000e+000
          2.000000000000e+001 1.750000000000e+001 0.000000000000e+000
          2.000000000000e+001 2.000000000000e+001 0.000000000000e+000
          2.200000000000e+001 0.000000000000e+000 0.000000000000e+000
          2.200000000000e+001 2.500000000000e+000 0.000000000000e+000
          2.200000000000e+001 5.000000000000e+000 0.000000000000e+000
          2.200000000000e+001 7.500000000000e+000 0.000000000000e+000
          2.200000000000e+001 1.000000000000e+001 0.000000000000e+000
          2.200000000000e+001 1.250000000000e+001 0.000000000000e+000
          2.200000000000e+001 1.500000000000e+001 0.000000000000e+000
          2.200000000000e+001 1.750000000000e+001 0.000000000000e+000
          2.200000000000e+001 2.000000000000e+001 0.000000000000e+000
          2.400000000000e+001 0.000000000000e+000 0.000000000000e+000
          2.400000000000e+001 2.500000000000e+000 0.000000000000e+000
          2.400000000000e+001 5.000000000000e+000 0.000000000000e+000
          2.400000000000e+001 7.500000000000e+000 0.000000000000e+000
          2.400000000000e+001 1.000000000000e+001 0.000000000000e+000
          2.400000000000e+001 1.250000000000e+001 0.000000000000e+000
          2.400000000000e+001 1.500000000000e+001 0.000000000000e+000
          2.400000000000e+001 1.750000000000e+001 0.000000000000e+000
          2.400000000000e+001 2.000000000000e+001 0.000000000000e+000
          2.600000000000e+001 0.000000000000e+000 0.000000000000e+000
          2.600000000000e+001 2.500000000000e+000 0.000000000000e+000
          2.600000000000e+001 5.000000000000e+000 0.000000000000e+000
          2.600000000000e+001 7.500000000000e+000 0.000000000000e+000
          2.600000000000e+001 1.000000000000e+001 0.000000000000e+000
          2.600000000000e+001 1.250000000000e+001 0.000000000000e+000
          2.600000000000e+001 1.500000000000e+001 0.000000000000e+000
          2.600000000000e+001 1.750000000000e+001 0.000000000000e+000
          2.600000000000e+001 2.000000000000e+001 0.000000000000e+000
          2.800000000000e+001 0.000000000000e+000 0.000000000000e+000
          2.800000000000e+001 2.500000000000e+000 0.000000000000e+000
          2.800000000000e+001 5.000000000000e+000 0.000000000000e+000
          2.800000000000e+001 7.500000000000e+000 0.000000000000e+000
          2.800000000000e+001 1.000000000000e+001 0.000000000000e+000
          2.800000000000e+001 1.250000000000e+001 0.000000000000e+000
          2.800000000000e+001 1.500000000000e+001 0.000000000000e+000
          2.800000000000e+001 1.750000000000e+001 0.000000000000e+000
          2.800000000000e+001 2.000000000000e+001 0.000000000000e+000
          3.000000000000e+001 0.000000000000e+000 0.000000000000e+000
          3.000000000000e+001 2.500000000000e+000 0.000000000000e+000
          3.000000000000e+001 5.000000000000e+000 0.000000000000e+000
          3.000000000000e+001 7.500000000000e+000 0.000000000000e+000
[...]
      <PointData Scalars="CAPILLARY_PRESSURE">
        <DataArray type="Float64" Name="CAPILLARY_PRESSURE" format="ascii">
          2.738524982453e+005 2.708473158504e+005 2.708473158504e+005 2.738524982453e+005 2.708473158504e+005 2.738524982453e+005 2.708473158504e+005 2.738524982453e+005 2.708473158504e+005 2.738524982453e+005 2.708473158504e+005 2.738524982453e+005 2.708473158504e+005 2.738524982453e+005 2.708473158504e+005 2.738524982453e+005 2.708473158504e+005 2.738524982453e+005 2.678429466921e+005 2.678429466921e+005 2.678429466921e+005 2.678429466921e+005 2.678429466921e+005 2.678429466921e+005 2.678429466921e+005 2.678429466921e+005 2.678429466921e+005 2.648383300569e+005 2.648383300569e+005 2.648383300569e+005 2.648383300569e+005 2.648383300569e+005 2.648383300569e+005 2.648383300569e+005 2.648383300569e+005 2.648383300569e+005 2.618323424096e+005 2.618323424096e+005 2.618323424096e+005 2.618323424096e+005 2.618323424096e+005 2.618323424096e+005 2.618323424096e+005 2.618323424096e+005 2.618323424096e+005 2.588238108088e+005 2.588238108088e+005 2.588238108088e+005 2.588238108088e+005 2.588238108088e+005 2.588238108088e+005 2.588238108088e+005 2.588238108088e+005 2.588238108088e+005 2.558114828910e+005 2.558114828910e+005 2.558114828910e+005 2.558114828910e+005 2.558114828910e+005 2.558114828910e+005 2.558114828910e+005 2.558114828910e+005 2.558114828910e+005 2.527940317841e+005 2.527940317841e+005 2.527940317841e+005 2.527940317841e+005 2.527940317841e+005 2.527940317841e+005 2.527940317841e+005 2.527940317841e+005 2.527940317841e+005 2.497700446384e+005 2.497700446384e+005 2.497700446384e+005 2.497700446384e+005 2.497700446384e+005 2.497700446384e+005 2.497700446384e+005 2.497700446384e+005 2.497700446384e+005 2.467380170443e+005 2.467380170443e+005 2.467380170443e+005 2.467380170443e+005 2.467380170443e+005 2.467380170443e+005 2.467380170443e+005 2.467380170443e+005 2.467380170443e+005 2.436963450994e+005 2.436963450994e+005 2.436963450994e+005 2.436963450994e+005 2.436963450994e+005 2.436963450994e+005 2.436963450994e+005 2.436963450994e+005 2.436963450994e+005 2.406433163488e+005 2.406433163488e+005 2.406433163488e+005 2.406433163488e+005 2.406433163488e+005 2.406433163488e+005 2.406433163488e+005 2.406433163488e+005 2.406433163488e+005 2.375770996700e+005 2.375770996700e+005 2.375770996700e+005 2.375770996700e+005 2.375770996700e+005 2.375770996700e+005 2.375770996700e+005 2.375770996700e+005 2.375770996700e+005 2.344957338292e+005 2.344957338292e+005 2.344957338292e+005 2.344957338292e+005 2.344957338292e+005 2.344957338292e+005 2.344957338292e+005 2.344957338292e+005 2.344957338292e+005 2.313971145214e+005 2.313971145214e+005 2.313971145214e+005 2.313971145214e+005 2.313971145214e+005 2.313971145214e+005 2.313971145214e+005 2.313971145214e+005 2.313971145214e+005 2.282789796744e+005 2.282789796744e+005 2.282789796744e+005 2.282789796744e+005 2.282789796744e+005 2.282789796744e+005 2.282789796744e+005 2.282789796744e+005 2.282789796744e+005 2.251388927378e+005 2.251388927378e+005 2.251388927378e+005 2.251388927378e+005 2.251388927378e+005 2.251388927378e+005 2.251388927378e+005 2.251388927378e+005 2.251388927378e+005 2.219742236162e+005 2.219742236162e+005 2.219742236162e+005 2.219742236162e+005 2.219742236162e+005 2.219742236162e+005 2.219742236162e+005 2.219742236162e+005 2.219742236162e+005 2.187821268380e+005 2.187821268380e+005 2.187821268380e+005 2.187821268380e+005 2.187821268380e+005 2.187821268380e+005 2.187821268380e+005 2.187821268380e+005 2.187821268380e+005 2.155595164600e+005 2.155595164600e+005 2.155595164600e+005 2.155595164600e+005 2.155595164600e+005 2.155595164600e+005 2.155595164600e+005 2.155595164600e+005 2.155595164600e+005 2.123030371078e+005 2.123030371078e+005 2.123030371078e+005 2.123030371078e+005 2.123030371078e+005 2.123030371078e+005 2.123030371078e+005 2.123030371078e+005 2.123030371078e+005 2.090090304144e+005 2.090090304144e+005 2.090090304144e+005 2.090090304144e+005 2.090090304144e+005 2.090090304144e+005 2.090090304144e+005 2.090090304144e+005 2.090090304144e+005 2.056734959524e+005 2.056734959524e+005 2.056734959524e+005 2.056734959524e+005 2.056734959524e+005 2.056734959524e+005 2.056734959524e+005 2.056734959524e+005 2.056734959524e+005 2.022920455400e+005 2.022920455400e+005 2.022920455400e+005 2.022920455400e+005 2.022920455400e+005 2.022920455400e+005 2.022920455400e+005 2.022920455400e+005 2.022920455400e+005 1.988598495261e+005 1.988598495261e+005 1.988598495261e+005 1.988598495261e+005 1.988598495261e+005 1.988598495261e+005 1.988598495261e+005 1.988598495261e+005 1.988598495261e+005 1.953715733018e+005 1.953715733018e+005 1.953715733018e+005 1.953715733018e+005 1.953715733018e+005 1.953715733018e+005 1.953715733018e+005 1.953715733018e+005 1.953715733018e+005 1.918213018213e+005 1.918213018213e+005 1.918213018213e+005 1.918213018213e+005 1.918213018213e+005 1.918213018213e+005 1.918213018212e+005 1.918213018212e+005 1.918213018212e+005 1.882024493000e+005 1.882024493000e+005 1.882024493000e+005 1.882024493000e+005 1.882024493000e+005 1.882024493000e+005 1.882024493000e+005 1.882024493000e+005 1.882024493000e+005 1.845076504404e+005 1.845076504404e+005 1.845076504404e+005 1.845076504404e+005 1.845076504404e+005 1.845076504404e+005 1.845076504404e+005 1.845076504404e+005 1.845076504404e+005 1.807286284317e+005 1.807286284317e+005 1.807286284317e+005 1.807286284317e+005 1.807286284317e+005 1.807286284317e+005 1.807286284317e+005 1.807286284317e+005 1.807286284317e+005 1.768560334658e+005 1.768560334658e+005 1.768560334658e+005 1.768560334658e+005 1.768560334658e+005 1.768560334658e+005 1.768560334658e+005 1.768560334658e+005 1.768560334658e+005 1.728792434289e+005 1.728792434289e+005 1.728792434289e+005 1.728792434289e+005 1.728792434289e+005 1.728792434288e+005 1.728792434288e+005 1.728792434288e+005 1.728792434288e+005 1.687861155193e+005 1.687861155192e+005 1.687861155192e+005 1.687861155192e+005 1.687861155192e+005 1.687861155192e+005 1.687861155191e+005 1.687861155191e+005 1.687861155191e+005 1.645626734390e+005 1.645626734390e+005 1.645626734390e+005 1.645626734390e+005 1.645626734389e+005 1.645626734389e+005 1.645626734389e+005 1.645626734389e+005 1.645626734389e+005 1.601927089070e+005 1.601927089070e+005 1.601927089069e+005 1.601927089069e+005 1.601927089069e+005 1.601927089068e+005 1.601927089068e+005 1.601927089067e+005 1.601927089067e+005 1.556572674754e+005 1.556572674754e+005 1.556572674753e+005 1.556572674753e+005 1.556572674752e+005 1.556572674751e+005 1.556572674751e+005 1.556572674750e+005 1.556572674750e+005 1.509339752275e+005 1.509339752274e+005 1.509339752274e+005 1.509339752273e+005 1.509339752272e+005 1.509339752271e+005 1.509339752270e+005 1.509339752269e+005 1.509339752269e+005 1.459961439359e+005 1.459961439358e+005 1.459961439357e+005 1.459961439356e+005 1.459961439354e+005 1.459961439352e+005 1.459961439351e+005 1.459961439350e+005 1.459961439350e+005 1.408115644567e+005 1.408115644566e+005 1.408115644564e+005 1.408115644561e+005 1.408115644558e+005 1.408115644555e+005 1.408115644553e+005 1.408115644551e+005 1.408115644550e+005 1.353408398832e+005 1.353408398835e+005 1.353408398832e+005 1.353408398831e+005 1.353408398826e+005 1.353408398824e+005 1.353408398819e+005 1.353408398818e+005 1.353408398818e+005 1.295349668192e+005 1.295349668181e+005 1.295349668183e+005 1.295349668173e+005 1.295349668174e+005 1.295349668162e+005 1.295349668160e+005 1.295349668154e+005 1.295349668152e+005 1.233321725666e+005 1.233321725683e+005 1.233321725643e+005 1.233321725628e+005 1.233321725571e+005 1.233321725572e+005 1.233321725557e+005 1.233321725547e+005 1.233321725537e+005 1.166522148454e+005 1.166522148426e+005 1.166522148572e+005 1.166522148630e+005 1.166522148830e+005 1.166522148823e+005 1.166522148820e+005 1.166522148868e+005 1.166522148919e+005 1.093896551296e+005 1.093896551359e+005 1.093896551056e+005 1.093896551038e+005 1.093896550563e+005 1.093896550637e+005 1.093896550780e+005 1.093896550633e+005 1.093896550476e+005 1.013988173160e+005 1.013988173026e+005 1.013988173548e+005 1.013988173293e+005 1.013988174259e+005 1.013988174072e+005 1.013988173528e+005 1.013988173845e+005 1.013988174108e+005 9.247733666614e+004 9.247733671191e+004 9.247733667884e+004 9.247733683097e+004 9.247733671671e+004 9.247733677967e+004 9.247733692838e+004 9.247733688830e+004 9.247733689279e+004 8.231405163935e+004 8.231405153406e+004 8.231405153660e+004 8.231405118757e+004 8.231405131510e+004 8.231405122836e+004 8.231405097634e+004 8.231405103094e+004 8.231405088016e+004 7.043579895312e+004 7.043579900468e+004 7.043579875687e+004 7.043579902361e+004 7.043579849936e+004 7.043579832167e+004 7.043579855635e+004 7.043579822367e+004 7.043579855246e+004 5.604638950324e+004 5.604638995722e+004 5.604638984449e+004 5.604638924150e+004 5.604638976618e+004 5.604639040894e+004 5.604638941967e+004 5.604639033346e+004 5.604638960266e+004 3.770839515831e+004 3.770839430757e+004 3.770839480086e+004 3.770839507681e+004 3.770839495073e+004 3.770839291737e+004 3.770839233394e+004 3.770839134187e+004 3.770839340474e+004 1.324783125566e+004 1.324783430909e+004 1.324783355055e+004 1.324783435923e+004 1.324783474905e+004 1.324783803607e+004 1.324783994979e+004 1.324784094910e+004 1.324784027589e+004 -1.669146687850e+004 -1.669146546594e+004 -1.669146496672e+004 -1.669146394005e+004 -1.669146090366e+004 -1.669145437638e+004 -1.669145339720e+004 -1.669144976590e+004 -1.669144960436e+004 -4.659192847964e+004 -4.659192826334e+004 -4.659192755293e+004 -4.659192562403e+004 -4.659192333379e+004 -4.659191930549e+004 -4.659191787653e+004 -4.659191175663e+004 -4.659191618646e+004 -7.586352715900e+004 -7.586352312887e+004 -7.586352385146e+004 -7.586352417521e+004 -7.586352479450e+004 -7.586351939460e+004 -7.586351728485e+004 -7.586351566530e+004 -7.586351497785e+004 -1.045183404178e+005 -1.045183481986e+005 -1.045183457307e+005 -1.045183439616e+005 -1.045183448778e+005 -1.045183447332e+005 -1.045183401883e+005 -1.045183366915e+005 -1.045183351114e+005 -1.325726148956e+005 -1.325726176001e+005 -1.325726173396e+005 -1.325726127710e+005 -1.325726115985e+005 -1.325726110428e+005 -1.325726082523e+005 -1.325726092904e+005 -1.325726063234e+005 -1.600424677284e+005 -1.600424671769e+005 -1.600424660618e+005 -1.600424640620e+005 -1.600424633318e+005 -1.600424633040e+005 -1.600424600907e+005 -1.600424643255e+005 -1.600424610419e+005 -1.869433751985e+005 -1.869433760187e+005 -1.869433744487e+005 -1.869433712446e+005 -1.869433708457e+005 -1.869433721315e+005 -1.869433692240e+005 -1.869433702473e+005 -1.869433682435e+005 -2.132902751797e+005 -2.132902756347e+005 -2.132902739131e+005 -2.132902737018e+005 -2.132902720131e+005 -2.132902733199e+005 -2.132902721888e+005 -2.132902713620e+005 -2.132902735344e+005 -2.390977586498e+005 -2.390977600740e+005 -2.390977616783e+005 -2.390977616986e+005 -2.390977639191e+005 -2.390977602391e+005 -2.390977595652e+005 -2.390977607925e+005 -2.390977625978e+005 -2.643802235586e+005 -2.643802243228e+005 -2.643802282020e+005 -2.643802285085e+005 -2.643802274237e+005 -2.643802239688e+005 -2.643802255679e+005 -2.643802269320e+005 -2.643802281095e+005 -2.891519368857e+005 -2.891519403085e+005 -2.891519406211e+005 -2.891519401506e+005 -2.891519373107e+005 -2.891519382899e+005 -2.891519403879e+005 -2.891519378110e+005 -2.891519386975e+005 -3.134270785431e+005 -3.134270789017e+005 -3.134270788496e+005 -3.134270784352e+005 -3.134270776284e+005 -3.134270759921e+005 -3.134270785878e+005 -3.134270769893e+005 -3.134270767104e+005 -3.372197566082e+005 -3.372197536069e+005 -3.372197553350e+005 -3.372197544029e+005 -3.372197516579e+005 -3.372197529807e+005 -3.372197546556e+005 -3.372197540873e+005 -3.372197539500e+005 -3.605440015258e+005 -3.605440028509e+005 -3.605440029486e+005 -3.605440036965e+005 -3.605440001756e+005 -3.605440002191e+005 -3.605440035380e+005 -3.605440029560e+005 -3.605440014455e+005 -3.834137812669e+005 -3.834137823515e+005 -3.834137816777e+005 -3.834137804608e+005 -3.834137789422e+005 -3.834137799438e+005 -3.834137828395e+005 -3.834137824751e+005 -3.834137799956e+005 -4.058429586407e+005 -4.058429596219e+005 -4.058429594338e+005 -4.058429600473e+005 -4.058429571546e+005 -4.058429585961e+005 -4.058429607261e+005 -4.058429597508e+005 -4.058429580867e+005 -4.278453192708e+005 -4.278453202706e+005 -4.278453215758e+005 -4.278453189531e+005 -4.278453192003e+005 -4.278453203203e+005 -4.278453206571e+005 -4.278453216607e+005 -4.278453182488e+005 -4.494345537177e+005 -4.494345546183e+005 -4.494345541912e+005 -4.494345522230e+005 -4.494345542528e+005 -4.494345538105e+005 -4.494345529585e+005 -4.494345532273e+005 -4.494345526181e+005 -4.706242637140e+005 -4.706242629450e+005 -4.706242625211e+005 -4.706242621629e+005 -4.706242592810e+005 -4.706242594080e+005 -4.706242619313e+005 -4.706242606122e+005 -4.706242603820e+005 -4.914279547891e+005 -4.914279523084e+005 -4.914279520820e+005 -4.914279502819e+005 -4.914279485782e+005 -4.914279489605e+005 -4.914279513798e+005 -4.914279501717e+005 -4.914279511318e+005 -5.118590434942e+005 -5.118590427371e+005 -5.118590427277e+005 -5.118590419032e+005 -5.118590411314e+005 -5.118590410399e+005 -5.118590422622e+005 -5.118590426445e+005 -5.118590423978e+005 -5.319308638959e+005 -5.319308660834e+005 -5.319308665858e+005 -5.319308673005e+005 -5.319308658860e+005 -5.319308666483e+005 -5.319308679502e+005 -5.319308666599e+005 -5.319308658707e+005 -5.516566690733e+005 -5.516566669734e+005 -5.516566695484e+005 -5.516566697006e+005 -5.516566684099e+005 -5.516566707678e+005 -5.516566693586e+005 -5.516566695910e+005 -5.516566690519e+005 -5.710496122486e+005 -5.710496108856e+005 -5.710496107109e+005 -5.710496104608e+005 -5.710496100986e+005 -5.710496119414e+005 -5.710496116010e+005 -5.710496121177e+005 -5.710496102117e+005 -5.901227697164e+005 -5.901227730453e+005 -5.901227734990e+005 -5.901227732892e+005 -5.901227726659e+005 -5.901227742726e+005 -5.901227739652e+005 -5.901227741240e+005 -5.901227747163e+005 -6.088891570263e+005 -6.088891604464e+005 -6.088891595215e+005 -6.088891595544e+005 -6.088891625377e+005 -6.088891605978e+005 -6.088891619582e+005 -6.088891619877e+005 -6.088891622803e+005 -6.273617005243e+005 -6.273617020679e+005 -6.273617025034e+005 -6.273617014582e+005 -6.273617028141e+005 -6.273617032533e+005 -6.273617043973e+005 -6.273617029461e+005 -6.273617031817e+005 -6.455532569136e+005 -6.455532557821e+005 -6.455532559756e+005 -6.455532572806e+005 -6.455532559111e+005 -6.455532567354e+005 -6.455532568407e+005 -6.455532563967e+005 -6.455532559656e+005 -6.634766107329e+005 -6.634766118920e+005 -6.634766103015e+005 -6.634766109099e+005 -6.634766107298e+005 -6.634766114921e+005 -6.634766115740e+005 -6.634766104919e+005 -6.634766117229e+005 -6.811444921052e+005 -6.811444891790e+005 -6.811444885113e+005 -6.811444899857e+005 -6.811444891061e+005 -6.811444883530e+005 -6.811444889682e+005 -6.811444884318e+005 -6.811444898150e+005 -6.985695554781e+005 -6.985695524544e+005 -6.985695509774e+005 -6.985695523292e+005 -6.985695524673e+005 -6.985695527818e+005 -6.985695526049e+005 -6.985695530838e+005 -6.985695510063e+005 -7.157644048648e+005 -7.157644038131e+005 -7.157644024939e+005 -7.157644033550e+005 -7.157644039354e+005 -7.157644037623e+005 -7.157644039340e+005 -7.157644026885e+005 -7.157644026778e+005 -7.327415914377e+005 -7.327415895097e+005 -7.327415883231e+005 -7.327415886689e+005 -7.327415881953e+005 -7.327415867136e+005 -7.327415884774e+005 -7.327415879130e+005 -7.327415873832e+005 -7.495136055575e+005 -7.495136026939e+005 -7.495136020069e+005 -7.495136001664e+005 -7.495136002618e+005 -7.495135999963e+005 -7.495136002606e+005 -7.495135989380e+005 -7.495135982165e+005 -7.660928880196e+005 -7.660928870853e+005 -7.660928860523e+005 -7.660928846831e+005 -7.660928840835e+005 -7.660928831995e+005 -7.660928833069e+005 -7.660928819146e+005 -7.660928824374e+005 -7.824918397947e+005 -7.824918396438e+005 -7.824918374741e+005 -7.824918387700e+005 -7.824918364686e+005 -7.824918360371e+005 -7.824918357573e+005 -7.824918346155e+005 -7.824918335211e+005 -7.987228144548e+005 -7.987228134637e+005 -7.987228143982e+005 -7.987228121213e+005 -7.987228117968e+005 -7.987228106442e+005 -7.987228104167e+005 -7.987228102224e+005 -7.987228091489e+005 -8.147981234543e+005 -8.147981250324e+005 -8.147981243954e+005 -8.147981242159e+005 -8.147981227843e+005 -8.147981223544e+005 -8.147981214983e+005 -8.147981201035e+005 -8.147981194288e+005 -8.307300466824e+005 -8.307300485621e+005 -8.307300492928e+005 -8.307300478279e+005 -8.307300462175e+005 -8.307300463203e+005 -8.307300447488e+005 -8.307300433993e+005 -8.307300432424e+005 -8.465308236308e+005 -8.465308259675e+005 -8.465308258209e+005 -8.465308257870e+005 -8.465308248153e+005 -8.465308230409e+005 -8.465308218508e+005 -8.465308215556e+005 -8.465308208797e+005 -8.622126683008e+005 -8.622126663590e+005 -8.622126672212e+005 -8.622126671557e+005 -8.622126668410e+005 -8.622126642811e+005 -8.622126632580e+005 -8.622126640570e+005 -8.622126637267e+005 -8.777877557344e+005 -8.777877551681e+005 -8.777877549314e+005 -8.777877548350e+005 -8.777877538662e+005 -8.777877516296e+005 -8.777877522747e+005 -8.777877516434e+005 -8.777877519744e+005 -8.932682458959e+005 -8.932682451183e+005 -8.932682450701e+005 -8.932682436407e+005 -8.932682434889e+005 -8.932682424447e+005 -8.932682421666e+005 -8.932682415764e+005 -8.932682422849e+005 -9.086662703877e+005 -9.086662694869e+005 -9.086662698575e+005 -9.086662694902e+005 -9.086662683553e+005 -9.086662682362e+005 -9.086662676161e+005 -9.086662675463e+005 -9.086662663530e+005 -9.239939422510e+005 -9.239939429218e+005 -9.239939436972e+005 -9.239939432365e+005 -9.239939425004e+005 -9.239939428008e+005 -9.239939421514e+005 -9.239939421856e+005 -9.239939419124e+005 -9.392633615203e+005 -9.392633622910e+005 -9.392633628344e+005 -9.392633622497e+005 -9.392633622042e+005 -9.392633624263e+005 -9.392633616106e+005 -9.392633621420e+005 -9.392633622120e+005 -9.544866100822e+005 -9.544866101961e+005 -9.544866105397e+005 -9.544866106652e+005 -9.544866095222e+005 -9.544866093619e+005 -9.544866096662e+005 -9.544866099319e+005 -9.544866097745e+005 -9.696757568034e+005 -9.696757576257e+005 -9.696757582576e+005 -9.696757581849e+005 -9.696757578803e+005 -9.696757572019e+005 -9.696757572018e+005 -9.696757573720e+005 -9.696757574842e+005 -9.848428682305e+005 -9.848428686624e+005 -9.848428689143e+005 -9.848428687642e+005 -9.848428688574e+005 -9.848428683983e+005 -9.848428683979e+005 -9.848428685618e+005 -9.848428684039e+005 -1.000000000000e+006 -1.000000000000e+006 -1.000000000000e+006 -1.000000000000e+006 -1.000000000000e+006 -1.000000000000e+006 -1.000000000000e+006 -1.000000000000e+006 -1.000000000000e+006 
        </DataArray>
        <DataArray type="Float64" Name="NONWET_PRESSURE" format="ascii">