<?xml version="1.0"?>
<VTKFile type="UnstructuredGrid" version="0.1" byte_order="LittleEndian">
  <UnstructuredGrid>
    <Piece NumberOfPoints="909" NumberOfCells="800">
      <Points>
        <DataArray type="Float64" NumberOfComponents="3" format="ascii">
          0.000000000000e+000 0.000000000000e+000 0.000000000000e+000
          2.000000000000e+000 0.000000000000e+000 0.000000000000e+000
          2.000000000000e+000 2.500000000000e+000 0.000000000000e+000
          0.000000000000e+000 2.500000000000e+000 0.000000000000e+000
          2.000000000000e+000 5.000000000000e+000 0.000000000000e+000
          0.000000000000e+000 5.000000000000e+000 0.000000000000e+000
          2.000000000000e+000 7.500000000000e+000 0.000000000000e+000
          0.000000000000e+000 7.500000000000e+000 0.000000000000e+000
          2.000000000000e+000 1.000000000000e+001 0.000000000000e+000
          0.000000000000e+000 1.000000000000e+001 0.000000000000e+000
          2.000000000000e+000 1.250000000000e+001 0.000000000000e+000
          0.000000000000e+000 1.250000000000e+001 0.000000000000e+000
          2.000000000000e+000 1.500000000000e+001 0.000000000000e+000
          0.000000000000e+000 1.500000000000e+001 0.000000000000e+000
          2.000000000000e+000 1.750000000000e+001 0.000000000000e+000
          0.000000000000e+000 1.750000000000e+001 0.000000000000e+000
          2.000000000000e+000 2.000000000000e+001 0.000000000000e+000
          0.000000000000e+000 2.000000000000e+001 0.000000000000e+000
          4.000000000000e+000 0.000000000000e+000 0.000000000000e+000
          4.000000000000e+000 2.500000000000e+000 0.000000000000e+000
          4.000000000000e+000 5.000000000000e+000 0.000000000000e+000
          4.000000000000e+000 7.500000000000e+000 0.000000000000e+000
          4.000000000000e+000 1.000000000000e+001 0.000000000000e+000
          4.000000000000e+000 1.250000000000e+001 0.000000000000e+000
          4.000000000000e+000 1.500000000000e+001 0.000000000000e+000
          4.000000000000e+000 1.750000000000e+001 0.000000000000e+000
          4.000000000000e+000 2.000000000000e+001 0.000000000000e+000
          6.000000000000e+000 0.000000000000e+000 0.000000000000e+000
          6.000000000000e+000 2.500000000000e+000 0.000000000000e+000
          6.000000000000e+000 5.000000000000e+000 0.000000000000e+000
          6.000000000000e+000 7.500000000000e+000 0.000000000000e+000
          6.000000000000e+000 1.000000000000e+001 0.000000000000e+000
          6.000000000000e+000 1.250000000000e+001 0.000000000000e+000
          6.000000000000e+000 1.500000000000e+001 0.000000000000e+000
          6.000000000000e+000 1.750000000000e+001 0.000000000000e+000
          6.000000000000e+000 2.000000000000e+001 0.000000000000e+000
          8.000000000000e+000 0.000000000000e+000 0.000000000000e+000
          8.000000000000e+000 2.500000000000e+000 0.000000000000e+000
          8.000000000000e+000 5.000000000000e+000 0.000000000000e+000
          8.000000000000e+000 7.500000000000e+000 0.000000000000e+000
          8.000000000000e+000 1.000000000000e+001 0.000000000000e+000
          8.000000000000e+000 1.250000000000e+001 0.000000000000e+000
          8.000000000000e+000 1.500000000000e+001 0.000000000000e+000
          8.000000000000e+000 1.750000000000e+001 0.000000000000e+000
          8.000000000000e+000 2.000000000000e+001 0.000000000000e+000
          1.000000000000e+001 0.000000000000e+000 0.000000000000e+000
          1.000000000000e+001 2.500000000000e+000 0.000000000000e+000
          1.000000000000e+001 5.000000000000e+000 0.000000000000e+000
          1.000000000000e+001 7.500000000000e+000 0.000000000000e+000
          1.000000000000e+001 1.000000000000e+001 0.000000000000e+000
          1.000000000000e+001 1.250000000000e+001 0.000000000000e+000
          1.000000000000e+001 1.500000000000e+001 0.000000000000e+000
          1.000000000000e+001 1.750000000000e+001 0.000000000000e+000
          1.000000000000e+001 2.000000000000e+001 0.000000000000e+000
          1.200000000000e+001 0.000000000000e+000 0.000000000000e+000
          1.200000000000e+001 2.500000000000e+000 0.000000000000e+000
          1.200000000000e+001 5.000000000000e+000 0.000000000000e+000
          1.200000000000e+001 7.500000000000e+000 0.000000000000e+000
          1.200000000000e+001 1.000000000000e+001 0.000000000000e+000
          1.200000000000e+001 1.250000000000e+001 0.000000000000e+000
          1.200000000000e+001 1.500000000000e+001 0.000000000000e+000
          1.200000000000e+001 1.750000000000e+001 0.000000000000e+000
          1.200000000000e+001 2.000000000000e+001 0.000000000000e+000
          1.400000000000e+001 0.000000000000e+000 0.000000000000e+000
          1.400000000000e+001 2.500000000000e+000 0.000000000000e+000
          1.400000000000e+001 5.000000000000e+000 0.000000000000e+000
          1.400000000000e+001 7.500000000000e+000 0.000000000000e+000
          1.400000000000e+001 1.000000000000e+001 0.000000000000e+000
          1.400000000000e+001 1.250000000000e+001 0.000000000000e+000
          1.400000000000e+001 1.500000000000e+001 0.000000000000e+000
          1.400000000000e+001 1.750000000000e+001 0.000000000000e+000
          1.400000000000e+001 2.000000000000e+001 0.000000000000e+000
          1.600000000000e+001 0.000000000000e+000 0.000000000000e+000
          1.600000000000e+001 2.500000000000e+000 0.000000000000e+000
          1.600000000000e+001 5.000000000000e+000 0.000000000000e+000
          1.600000000000e+001 7.500000000000e+000 0.000000000000e+000
          1.600000000000e+001 1.000000000000e+001 0.000000000000e+000
          1.600000000000e+001 1.250000000000e+001 0.000000000000e+000
          1.600000000000e+001 1.500000000000e+001 0.000000000000e+000
          1.600000000000e+001 1.750000000000e+001 0.000000000000e+000
          1.600000000000e+001 2.000000000000e+001 0.000000000000e+000
          1.800000000000e+001 0.000000000000e+000 0.000000000000e+000
          1.800000000000e+001 2.500000000000e+000 0.000000000000e+000
          1.800000000000e+001 5.000000000000e+000 0.000000000000e+000
          1.800000000000e+001 7.500000000000e+000 0.000000000000e+000
          1.800000000000e+001 1.000000000000e+001 0.000000000000e+000
          1.800000000000e+001 1.250000000000e+001 0.000000000000e+000
          1.800000000000e+001 1.500000000000e+001 0.000000000000e+000
          1.800000000000e+001 1.750000000000e+001 0.000000000000e+000
          1.800000000000e+001 2.000000000000e+001 0.000000000000e+000
          2.000000000000e+001 0.000000000000e+000 0.000000000000e+000
          2.000000000000e+001 2.500000000000e+000 0.000000000000e+000
          2.000000000000e+001 5.000000000000e+000 0.000000000000e+000
          2.000000000000e+001 7.500000000000e+000 0.000000000000e+000
          2.000000000000e+001 1.000000000000e+001 0.000000000000e+000
          2.000000000000e+001 1.250000000000e+001 0.000000000000e+000
          2.000000000000e+001 1.500000000000e+001 0.000000000000e+000
          2.000000000000e+001 1.750000000000e+001 0.000000000000e+000
          2.000000000000e+001 2.000000000000e+001 0.000000000000e+000
          2.200000000000e+001 0.000000000000e+000 0.000000000000e+000
          2.200000000000e+001 2.500000000000e+000 0.000000000000e+000
          2.200000000000e+001 5.000000000000e+000 0.000000000000e+000
          2.200000000000e+001 7.500000000000e+000 0.000000000000e+000
          2.200000000000e+001 1.000000000000e+001 0.000000000000e+000
          2.200000000000e+001 1.250000000000e+001 0.000000000000e+000
          2.200000000000e+001 1.500000000000e+001 0.000000000000e+000
          2.200000000000e+001 1.750000000000e+001 0.000000000000e+000
          2.200000000000e+001 2.000000000000e+001 0.000000000000e+000
          2.400000000000e+001 0.000000000000e+000 0.000000000000e+000
          2.400000000000e+001 2.500000000000e+000 0.000000000000e+000
          2.400000000000e+001 5.000000000000e+000 0.000000000000e+000
          2.400000000000e+001 7.500000000000e+000 0.000000000000e+000
          2.400000000000e+001 1.000000000000e+001 0.000000000000e+000
          2.400000000000e+001 1.250000000000e+001 0.000000000000e+000
          2.400000000000e+001 1.500000000000e+001 0.000000000000e+000
          2.400000000000e+001 1.750000000000e+001 0.000000000000e+000
          2.400000000000e+001 2.000000000000e+001 0.000000000000e+000
          2.600000000000e+001 0.000000000000e+000 0.000000000000e+000
          2.600000000000e+001 2.500000000000e+000 0.000000000000e+000
          2.600000000000e+001 5.000000000000e+000 0.000000000000e+000
          2.600000000000e+001 7.500000000000e+000 0.000000000000e+000
          2.600000000000e+001 1.000000000000e+001 0.000000000000e+000
          2.600000000000e+001 1.250000000000e+001 0.000000000000e+000
          2.600000000000e+001 1.500000000000e+001 0.000000000000e+000
          2.600000000000e+001 1.750000000000e+001 0.000000000000e+000
          2.600000000000e+001 2.000000000000e+001 0.000000000000e+000
          2.800000000000e+001 0.000000000000e+000 0.000000000000e+000
          2.800000000000e+001 2.500000000000e+000 0.000000000000e+000
          2.800000000000e+001 5.000000000000e+000 0.000000000000e+000
          2.800000000000e+001 7.500000000000e+000 0.000000000000e+000
          2.800000000000e+001 1.000000000000e+001 0.000000000000e+000
          2.800000000000e+001 1.250000000000e+001 0.000000000000e+000
          2.800000000000e+001 1.500000000000e+001 0.000000000000e+000
          2.800000000000e+001 1.750000000000e+001 0.000000000000e+000
          2.800000000000e+001 2.000000000000e+001 0.000000000000e+000
          3.000000000000e+001 0.000000000000e+000 0.000000000000e+000
          3.000000000000e+001 2.500000000000e+000 0.000000000000e+000
          3.000000000000e+001 5.000000000000e+000 0.000000000000e+000
          3.000000000000e+001 7.500000000000e+000 0.000000000000e+000
[...]
      <PointData Scalars="CAPILLARY_PRESSURE">
        <DataArray type="Float64" Name="CAPILLARY_PRESSURE" format="ascii">
          3.866732885451e+005 3.848711536927e+005 3.848711536927e+005 3.866732885454e+005 3.848711536927e+005 3.866732885452e+005 3.848711536927e+005 3.866732885452e+005 3.848711536927e+005 3.866732885453e+005 3.848711536927e+005 3.866732885452e+005 3.848711536927e+005 3.866732885453e+005 3.848711536928e+005 3.866732885453e+005 3.848711536927e+005 3.866732885453e+005 3.830542860884e+005 3.830542860885e+005 3.830542860885e+005 3.830542860885e+005 3.830542860884e+005 3.830542860884e+005 3.830542860885e+005 3.830542860885e+005 3.830542860885e+005 3.812224749449e+005 3.812224749449e+005 3.812224749449e+005 3.812224749449e+005 3.812224749449e+005 3.812224749449e+005 3.812224749449e+005 3.812224749449e+005 3.812224749450e+005 3.793750976140e+005 3.793750976140e+005 3.793750976140e+005 3.793750976140e+005 3.793750976140e+005 3.793750976141e+005 3.793750976140e+005 3.793750976140e+005 3.793750976141e+005 3.775118964859e+005 3.775118964858e+005 3.775118964859e+005 3.775118964858e+005 3.775118964859e+005 3.775118964859e+005 3.775118964859e+005 3.775118964859e+005 3.775118964859e+005 3.756324763619e+005 3.756324763620e+005 3.756324763619e+005 3.756324763620e+005 3.756324763620e+005 3.756324763620e+005 3.756324763620e+005 3.756324763620e+005 3.756324763620e+005 3.737364801902e+005 3.737364801902e+005 3.737364801903e+005 3.737364801902e+005 3.737364801902e+005 3.737364801902e+005 3.737364801902e+005 3.737364801902e+005 3.737364801902e+005 3.718235014147e+005 3.718235014147e+005 3.718235014146e+005 3.718235014147e+005 3.718235014147e+005 3.718235014147e+005 3.718235014146e+005 3.718235014147e+005 3.718235014147e+005 3.698931280208e+005 3.698931280208e+005 3.698931280208e+005 3.698931280208e+005 3.698931280208e+005 3.698931280208e+005 3.698931280208e+005 3.698931280207e+005 3.698931280209e+005 3.679449273139e+005 3.679449273139e+005 3.679449273139e+005 3.679449273139e+005 3.679449273139e+005 3.679449273138e+005 3.679449273139e+005 3.679449273139e+005 3.679449273139e+005 3.659784514131e+005 3.659784514129e+005 3.659784514130e+005 3.659784514130e+005 3.659784514129e+005 3.659784514130e+005 3.659784514129e+005 3.659784514130e+005 3.659784514130e+005 3.639932349952e+005 3.639932349952e+005 3.639932349952e+005 3.639932349952e+005 3.639932349952e+005 3.639932349952e+005 3.639932349952e+005 3.639932349952e+005 3.639932349952e+005 3.619887943755e+005 3.619887943754e+005 3.619887943754e+005 3.619887943754e+005 3.619887943754e+005 3.619887943754e+005 3.619887943754e+005 3.619887943754e+005 3.619887943754e+005 3.599646263704e+005 3.599646263704e+005 3.599646263704e+005 3.599646263704e+005 3.599646263704e+005 3.599646263704e+005 3.599646263704e+005 3.599646263704e+005 3.599646263704e+005 3.579202070714e+005 3.579202070715e+005 3.579202070715e+005 3.579202070715e+005 3.579202070715e+005 3.579202070715e+005 3.579202070715e+005 3.579202070715e+005 3.579202070715e+005 3.558549906304e+005 3.558549906304e+005 3.558549906304e+005 3.558549906303e+005 3.558549906304e+005 3.558549906303e+005 3.558549906304e+005 3.558549906303e+005 3.558549906303e+005 3.537684080043e+005 3.537684080043e+005 3.537684080043e+005 3.537684080043e+005 3.537684080043e+005 3.537684080043e+005 3.537684080043e+005 3.537684080043e+005 3.537684080042e+005 3.516598656315e+005 3.516598656316e+005 3.516598656315e+005 3.516598656316e+005 3.516598656316e+005 3.516598656315e+005 3.516598656316e+005 3.516598656315e+005 3.516598656316e+005 3.495287440137e+005 3.495287440137e+005 3.495287440137e+005 3.495287440137e+005 3.495287440137e+005 3.495287440136e+005 3.495287440137e+005 3.495287440137e+005 3.495287440136e+005 3.473743961864e+005 3.473743961865e+005 3.473743961865e+005 3.473743961865e+005 3.473743961865e+005 3.473743961865e+005 3.473743961865e+005 3.473743961865e+005 3.473743961864e+005 3.451961460626e+005 3.451961460626e+005 3.451961460626e+005 3.451961460626e+005 3.451961460626e+005 3.451961460626e+005 3.451961460626e+005 3.451961460625e+005 3.451961460626e+005 3.429932866356e+005 3.429932866357e+005 3.429932866356e+005 3.429932866356e+005 3.429932866357e+005 3.429932866356e+005 3.429932866356e+005 3.429932866356e+005 3.429932866356e+005 3.407650780330e+005 3.407650780329e+005 3.407650780330e+005 3.407650780330e+005 3.407650780330e+005 3.407650780330e+005 3.407650780329e+005 3.407650780329e+005 3.407650780329e+005 3.385107454049e+005 3.385107454050e+005 3.385107454049e+005 3.385107454050e+005 3.385107454049e+005 3.385107454050e+005 3.385107454050e+005 3.385107454049e+005 3.385107454049e+005 3.362294766358e+005 3.362294766359e+005 3.362294766359e+005 3.362294766358e+005 3.362294766360e+005 3.362294766358e+005 3.362294766359e+005 3.362294766358e+005 3.362294766359e+005 3.339204198586e+005 3.339204198585e+005 3.339204198586e+005 3.339204198586e+005 3.339204198586e+005 3.339204198586e+005 3.339204198585e+005 3.339204198586e+005 3.339204198586e+005 3.315826807524e+005 3.315826807525e+005 3.315826807525e+005 3.315826807525e+005 3.315826807526e+005 3.315826807525e+005 3.315826807526e+005 3.315826807525e+005 3.315826807526e+005 3.292153196017e+005 3.292153196017e+005 3.292153196018e+005 3.292153196017e+005 3.292153196018e+005 3.292153196017e+005 3.292153196017e+005 3.292153196018e+005 3.292153196016e+005 3.268173480861e+005 3.268173480862e+005 3.268173480862e+005 3.268173480862e+005 3.268173480861e+005 3.268173480861e+005 3.268173480862e+005 3.268173480862e+005 3.268173480861e+005 3.243877257764e+005 3.243877257763e+005 3.243877257763e+005 3.243877257762e+005 3.243877257763e+005 3.243877257762e+005 3.243877257763e+005 3.243877257762e+005 3.243877257762e+005 3.219253562969e+005 3.219253562968e+005 3.219253562968e+005 3.219253562967e+005 3.219253562967e+005 3.219253562968e+005 3.219253562967e+005 3.219253562968e+005 3.219253562968e+005 3.194290831204e+005 3.194290831205e+005 3.194290831204e+005 3.194290831205e+005 3.194290831205e+005 3.194290831204e+005 3.194290831204e+005 3.194290831204e+005 3.194290831205e+005 3.168976849483e+005 3.168976849483e+005 3.168976849483e+005 3.168976849482e+005 3.168976849483e+005 3.168976849483e+005 3.168976849482e+005 3.168976849483e+005 3.168976849482e+005 3.143298706263e+005 3.143298706263e+005 3.143298706263e+005 3.143298706263e+005 3.143298706263e+005 3.143298706263e+005 3.143298706263e+005 3.143298706262e+005 3.143298706263e+005 3.117242735397e+005 3.117242735397e+005 3.117242735396e+005 3.117242735396e+005 3.117242735396e+005 3.117242735396e+005 3.117242735396e+005 3.117242735396e+005 3.117242735396e+005 3.090794454196e+005 3.090794454196e+005 3.090794454196e+005 3.090794454197e+005 3.090794454196e+005 3.090794454197e+005 3.090794454196e+005 3.090794454196e+005 3.090794454196e+005 3.063938494867e+005 3.063938494867e+005 3.063938494867e+005 3.063938494867e+005 3.063938494868e+005 3.063938494867e+005 3.063938494868e+005 3.063938494867e+005 3.063938494867e+005 3.036658528408e+005 3.036658528408e+005 3.036658528408e+005 3.036658528408e+005 3.036658528408e+005 3.036658528408e+005 3.036658528408e+005 3.036658528408e+005 3.036658528407e+005 3.008937179967e+005 3.008937179968e+005 3.008937179967e+005 3.008937179968e+005 3.008937179967e+005 3.008937179968e+005 3.008937179968e+005 3.008937179968e+005 3.008937179967e+005 2.980755934468e+005 2.980755934467e+005 2.980755934467e+005 2.980755934467e+005 2.980755934468e+005 2.980755934467e+005 2.980755934468e+005 2.980755934467e+005 2.980755934467e+005 2.952095031094e+005 2.952095031094e+005 2.952095031095e+005 2.952095031094e+005 2.952095031094e+005 2.952095031095e+005 2.952095031094e+005 2.952095031095e+005 2.952095031094e+005 2.922933345031e+005 2.922933345032e+005 2.922933345032e+005 2.922933345032e+005 2.922933345033e+005 2.922933345032e+005 2.922933345032e+005 2.922933345032e+005 2.922933345031e+005 2.893248254520e+005 2.893248254520e+005 2.893248254520e+005 2.893248254520e+005 2.893248254519e+005 2.893248254521e+005 2.893248254520e+005 2.893248254519e+005 2.893248254520e+005 2.863015490970e+005 2.863015490969e+005 2.863015490970e+005 2.863015490969e+005 2.863015490970e+005 2.863015490970e+005 2.863015490969e+005 2.863015490969e+005 2.863015490969e+005 2.832208969446e+005 2.832208969445e+005 2.832208969446e+005 2.832208969446e+005 2.832208969445e+005 2.832208969446e+005 2.832208969445e+005 2.832208969445e+005 2.832208969446e+005 2.800800596323e+005 2.800800596323e+005 2.800800596323e+005 2.800800596323e+005 2.800800596323e+005 2.800800596323e+005 2.800800596323e+005 2.800800596322e+005 2.800800596322e+005 2.768760050257e+005 2.768760050258e+005 2.768760050258e+005 2.768760050258e+005 2.768760050258e+005 2.768760050257e+005 2.768760050257e+005 2.768760050257e+005 2.768760050258e+005 2.736054531889e+005 2.736054531889e+005 2.736054531889e+005 2.736054531889e+005 2.736054531889e+005 2.736054531889e+005 2.736054531889e+005 2.736054531889e+005 2.736054531889e+005 2.702648476656e+005 2.702648476656e+005 2.702648476656e+005 2.702648476656e+005 2.702648476656e+005 2.702648476656e+005 2.702648476656e+005 2.702648476655e+005 2.702648476656e+005 2.668503223956e+005 2.668503223956e+005 2.668503223956e+005 2.668503223955e+005 2.668503223956e+005 2.668503223955e+005 2.668503223956e+005 2.668503223955e+005 2.668503223956e+005 2.633576634328e+005 2.633576634328e+005 2.633576634328e+005 2.633576634328e+005 2.633576634328e+005 2.633576634329e+005 2.633576634329e+005 2.633576634328e+005 2.633576634328e+005 2.597822644423e+005 2.597822644423e+005 2.597822644423e+005 2.597822644422e+005 2.597822644423e+005 2.597822644422e+005 2.597822644423e+005 2.597822644423e+005 2.597822644423e+005 2.561190747069e+005 2.561190747068e+005 2.561190747068e+005 2.561190747069e+005 2.561190747068e+005 2.561190747069e+005 2.561190747069e+005 2.561190747069e+005 2.561190747068e+005 2.523625380605e+005 2.523625380605e+005 2.523625380605e+005 2.523625380605e+005 2.523625380606e+005 2.523625380605e+005 2.523625380606e+005 2.523625380605e+005 2.523625380606e+005 2.485065207549e+005 2.485065207549e+005 2.485065207549e+005 2.485065207550e+005 2.485065207549e+005 2.485065207550e+005 2.485065207549e+005 2.485065207549e+005 2.485065207549e+005 2.445442257341e+005 2.445442257341e+005 2.445442257341e+005 2.445442257342e+005 2.445442257342e+005 2.445442257341e+005 2.445442257341e+005 2.445442257341e+005 2.445442257342e+005 2.404680900866e+005 2.404680900866e+005 2.404680900867e+005 2.404680900866e+005 2.404680900866e+005 2.404680900867e+005 2.404680900866e+005 2.404680900866e+005 2.404680900866e+005 2.362696615065e+005 2.362696615065e+005 2.362696615064e+005 2.362696615065e+005 2.362696615065e+005 2.362696615064e+005 2.362696615064e+005 2.362696615065e+005 2.362696615064e+005 2.319394483312e+005 2.319394483312e+005 2.319394483312e+005 2.319394483312e+005 2.319394483312e+005 2.319394483312e+005 2.319394483312e+005 2.319394483312e+005 2.319394483312e+005 2.274667359981e+005 2.274667359981e+005 2.274667359982e+005 2.274667359980e+005 2.274667359982e+005 2.274667359981e+005 2.274667359981e+005 2.274667359981e+005 2.274667359982e+005 2.228393603754e+005 2.228393603754e+005 2.228393603752e+005 2.228393603754e+005 2.228393603753e+005 2.228393603754e+005 2.228393603752e+005 2.228393603754e+005 2.228393603753e+005 2.180434250476e+005 2.180434250475e+005 2.180434250476e+005 2.180434250475e+005 2.180434250476e+005 2.180434250475e+005 2.180434250476e+005 2.180434250476e+005 2.180434250474e+005 2.130629447518e+005 2.130629447518e+005 2.130629447518e+005 2.130629447518e+005 2.130629447517e+005 2.130629447519e+005 2.130629447517e+005 2.130629447518e+005 2.130629447518e+005 2.078793899246e+005 2.078793899247e+005 2.078793899246e+005 2.078793899246e+005 2.078793899247e+005 2.078793899246e+005 2.078793899247e+005 2.078793899246e+005 2.078793899247e+005 2.024710965937e+005 2.024710965937e+005 2.024710965936e+005 2.024710965937e+005 2.024710965937e+005 2.024710965938e+005 2.024710965936e+005 2.024710965937e+005 2.024710965937e+005 1.968124903391e+005 1.968124903391e+005 1.968124903392e+005 1.968124903391e+005 1.968124903391e+005 1.968124903391e+005 1.968124903391e+005 1.968124903391e+005 1.968124903390e+005 1.908730512039e+005 1.908730512039e+005 1.908730512039e+005 1.908730512039e+005 1.908730512039e+005 1.908730512038e+005 1.908730512039e+005 1.908730512038e+005 1.908730512038e+005 1.846159138218e+005 1.846159138216e+005 1.846159138217e+005 1.846159138216e+005 1.846159138216e+005 1.846159138215e+005 1.846159138216e+005 1.846159138217e+005 1.846159138215e+005 1.779959389982e+005 1.779959389982e+005 1.779959389982e+005 1.779959389981e+005 1.779959389982e+005 1.779959389981e+005 1.779959389981e+005 1.779959389981e+005 1.779959389980e+005 1.709569744950e+005 1.709569744950e+005 1.709569744950e+005 1.709569744950e+005 1.709569744949e+005 1.709569744949e+005 1.709569744949e+005 1.709569744950e+005 1.709569744947e+005 1.634277892480e+005 1.634277892479e+005 1.634277892479e+005 1.634277892478e+005 1.634277892478e+005 1.634277892478e+005 1.634277892478e+005 1.634277892478e+005 1.634277892479e+005 1.553157756359e+005 1.553157756359e+005 1.553157756361e+005 1.553157756362e+005 1.553157756361e+005 1.553157756360e+005 1.553157756362e+005 1.553157756363e+005 1.553157756363e+005 1.464969855208e+005 1.464969855210e+005 1.464969855212e+005 1.464969855215e+005 1.464969855215e+005 1.464969855210e+005 1.464969855214e+005 1.464969855215e+005 1.464969855219e+005 1.368002555236e+005 1.368002555236e+005 1.368002555237e+005 1.368002555246e+005 1.368002555243e+005 1.368002555231e+005 1.368002555238e+005 1.368002555237e+005 1.368002555243e+005 1.259803440795e+005 1.259803440784e+005 1.259803440774e+005 1.259803440784e+005 1.259803440789e+005 1.259803440768e+005 1.259803440782e+005 1.259803440760e+005 1.259803440774e+005 1.136651747832e+005 1.136651747812e+005 1.136651747766e+005 1.136651747775e+005 1.136651747801e+005 1.136651747790e+005 1.136651747798e+005 1.136651747754e+005 1.136651747771e+005 9.924108935042e+004 9.924108935047e+004 9.924108934133e+004 9.924108933974e+004 9.924108934777e+004 9.924108934890e+004 9.924108935091e+004 9.924108934130e+004 9.924108934762e+004 8.159387432702e+004 8.159387433828e+004 8.159387432836e+004 8.159387431981e+004 8.159387433365e+004 8.159387433837e+004 8.159387434199e+004 8.159387432698e+004 8.159387434432e+004 5.839041083251e+004 5.839041086965e+004 5.839041087157e+004 5.839041084785e+004 5.839041086177e+004 5.839041086598e+004 5.839041086976e+004 5.839041085307e+004 5.839041089220e+004 2.389536014211e+004 2.389536024330e+004 2.389536027742e+004 2.389536022552e+004 2.389536022281e+004 2.389536021446e+004 2.389536021413e+004 2.389536019498e+004 2.389536028326e+004 -2.583327256057e+004 -2.583327138823e+004 -2.583327087519e+004 -2.583327150381e+004 -2.583327157616e+004 -2.583327176077e+004 -2.583327177894e+004 -2.583327195005e+004 -2.583327094698e+004 -7.721629441593e+004 -7.721629313393e+004 -7.721629182152e+004 -7.721629296174e+004 -7.721629363543e+004 -7.721629360185e+004 -7.721629384603e+004 -7.721629263650e+004 -7.721629233037e+004 -1.285688575238e+005 -1.285688556993e+005 -1.285688546302e+005 -1.285688550248e+005 -1.285688545971e+005 -1.285688531606e+005 -1.285688549612e+005 -1.285688544045e+005 -1.285688539298e+005 -1.799157021089e+005 -1.799156992591e+005 -1.799156986098e+005 -1.799156968321e+005 -1.799156969805e+005 -1.799156967567e+005 -1.799156970537e+005 -1.799156957458e+005 -1.799156950203e+005 -2.312507919162e+005 -2.312507909993e+005 -2.312507899883e+005 -2.312507886646e+005 -2.312507881000e+005 -2.312507872470e+005 -2.312507873794e+005 -2.312507859981e+005 -2.312507865251e+005 -2.825750646095e+005 -2.825750644656e+005 -2.825750623146e+005 -2.825750636366e+005 -2.825750613633e+005 -2.825750609548e+005 -2.825750606946e+005 -2.825750595617e+005 -2.825750584727e+005 -3.338886198918e+005 -3.338886189038e+005 -3.338886198522e+005 -3.338886175935e+005 -3.338886172882e+005 -3.338886161544e+005 -3.338886159408e+005 -3.338886157573e+005 -3.338886146836e+005 -3.851914342151e+005 -3.851914357964e+005 -3.851914351673e+005 -3.851914349993e+005 -3.851914335835e+005 -3.851914331653e+005 -3.851914323209e+005 -3.851914309325e+005 -3.851914302611e+005 -4.364835381607e+005 -4.364835400423e+005 -4.364835407785e+005 -4.364835393237e+005 -4.364835377211e+005 -4.364835378332e+005 -4.364835362672e+005 -4.364835349268e+005 -4.364835347739e+005 -4.877649720559e+005 -4.877649743932e+005 -4.877649742512e+005 -4.877649742251e+005 -4.877649732595e+005 -4.877649714902e+005 -4.877649703071e+005 -4.877649700173e+005 -4.877649693437e+005 -5.390357752060e+005 -5.390357732657e+005 -5.390357741306e+005 -5.390357740702e+005 -5.390357737610e+005 -5.390357712053e+005 -5.390357701869e+005 -5.390357709891e+005 -5.390357706599e+005 -5.902959730276e+005 -5.902959724612e+005 -5.902959722259e+005 -5.902959721342e+005 -5.902959711684e+005 -5.902959689361e+005 -5.902959695847e+005 -5.902959689551e+005 -5.902959692867e+005 -6.415456037891e+005 -6.415456030117e+005 -6.415456029651e+005 -6.415456015393e+005 -6.415456013896e+005 -6.415456003486e+005 -6.415456000722e+005 -6.415455994825e+005 -6.415456001928e+005 -6.927847002360e+005 -6.927846993360e+005 -6.927846997063e+005 -6.927846993415e+005 -6.927846982091e+005 -6.927846980921e+005 -6.927846974730e+005 -6.927846974044e+005 -6.927846962104e+005 -7.440132960404e+005 -7.440132967103e+005 -7.440132974865e+005 -7.440132970271e+005 -7.440132962924e+005 -7.440132965947e+005 -7.440132959466e+005 -7.440132959810e+005 -7.440132957084e+005 -7.952314287550e+005 -7.952314295259e+005 -7.952314300688e+005 -7.952314294861e+005 -7.952314294420e+005 -7.952314296649e+005 -7.952314288498e+005 -7.952314293822e+005 -7.952314294521e+005 -8.464391319540e+005 -8.464391320674e+005 -8.464391324113e+005 -8.464391325374e+005 -8.464391313960e+005 -8.464391312361e+005 -8.464391315411e+005 -8.464391318067e+005 -8.464391316496e+005 -8.976364372283e+005 -8.976364380507e+005 -8.976364386821e+005 -8.976364386099e+005 -8.976364383063e+005 -8.976364376286e+005 -8.976364376291e+005 -8.976364377995e+005 -8.976364379119e+005 -9.488233825825e+005 -9.488233830149e+005 -9.488233832671e+005 -9.488233831164e+005 -9.488233832095e+005 -9.488233827516e+005 -9.488233827516e+005 -9.488233829155e+005 -9.488233827579e+005 -1.000000000000e+006 -1.000000000000e+006 -1.000000000000e+006 -1.000000000000e+006 -1.000000000000e+006 -1.000000000000e+006 -1.000000000000e+006 -1.000000000000e+006 -1.000000000000e+006 
        </DataArray>
        <DataArray type="Float64" Name="NONWET_PRESSURE" format="ascii">