<?xml version="1.0"?>
<VTKFile type="UnstructuredGrid" version="0.1" byte_order="LittleEndian">
  <UnstructuredGrid>
    <Piece NumberOfPoints="909" NumberOfCells="800">
      <Points>
        <DataArray type="Float64" NumberOfComponents="3" format="ascii">
          0.000000000000e+000 0.000000000000e+000 0.000000000000e+000
          2.000000000000e+000 0.000000000000e+000 0.000000000000e+000
          2.000000000000e+000 2.500000000000e+000 0.000000000000e+000
          0.000000000000e+000 2.500000000000e+000 0.000000000000e+000
          2.000000000000e+000 5.000000000000e+000 0.000000000000e+000
          0.000000000000e+000 5.000000000000e+000 0.000000000000e+000
          2.000000000000e+000 7.500000000000e+000 0.000000000000e+000
          0.000000000000e+000 7.500000000000e+000 0.000000000000e+000
          2.000000000000e+000 1.000000000000e+001 0.000000000000e+000
          0.000000000000e+000 1.000000000000e+001 0.000000000000e+000
          2.000000000000e+000 1.250000000000e+001 0.000000000000e+000
          0.000000000000e+000 1.250000000000e+001 0.000000000000e+000
          2.000000000000e+000 1.500000000000e+001 0.000000000000e+000
          0.000000000000e+000 1.500000000000e+001 0.000000000000e+000
          2.000000000000e+000 1.750000000000e+001 0.000000000000e+000
          0.000000000000e+000 1.750000000000e+001 0.000000000000e+000
          2.000000000000e+000 2.000000000000e+001 0.000000000000e+000
          0.000000000000e+000 2.000000000000e+001 0.000000000000e+000
          4.000000000000e+000 0.000000000000e+000 0.000000000000e+000
          4.000000000000e+000 2.500000000000e+000 0.000000000000e+000
          4.000000000000e+000 5.000000000000e+000 0.000000000000e+000
          4.000000000000e+000 7.500000000000e+000 0.000000000000e+000
          4.000000000000e+000 1.000000000000e+001 0.000000000000e+000
          4.000000000000e+000 1.250000000000e+001 0.000000000000e+000
          4.000000000000e+000 1.500000000000e+001 0.000000000000e+000
          4.000000000000e+000 1.750000000000e+001 0.000000000000e+000
          4.000000000000e+000 2.000000000000e+001 0.000000000000e+000
          6.000000000000e+000 0.000000000000e+000 0.000000000000e+000
          6.000000000000e+000 2.500000000000e+000 0.000000000000e+000
          6.000000000000e+000 5.000000000000e+000 0.000000000000e+000
          6.000000000000e+000 7.500000000000e+000 0.000000000000e+000
          6.000000000000e+000 1.000000000000e+001 0.000000000000e+000
          6.000000000000e+000 1.250000000000e+001 0.000000000000e+000
          6.000000000000e+000 1.500000000000e+001 0.000000000000e+000
          6.000000000000e+000 1.750000000000e+001 0.000000000000e+000
          6.000000000000e+000 2.000000000000e+001 0.000000000000e+000
          8.000000000000e+000 0.000000000000e+000 0.000000000000e+000
          8.000000000000e+000 2.500000000000e+000 0.000000000000e+000
          8.000000000000e+000 5.000000000000e+000 0.000000000000e+000
          8.000000000000e+000 7.500000000000e+000 0.000000000000e+000
          8.000000000000e+000 1.000000000000e+001 0.000000000000e+000
          8.000000000000e+000 1.250000000000e+001 0.000000000000e+000
          8.000000000000e+000 1.500000000000e+001 0.000000000000e+000
          8.000000000000e+000 1.750000000000e+001 0.000000000000e+000
          8.000000000000e+000 2.000000000000e+001 0.000000000000e+000
          1.000000000000e+001 0.000000000000e+000 0.000000000000e+000
          1.000000000000e+001 2.500000000000e+000 0.000000000000e+000
          1.000000000000e+001 5.000000000000e+000 0.000000000000e+000
          1.000000000000e+001 7.500000000000e+000 0.000000000000e+000
          1.000000000000e+001 1.000000000000e+001 0.000000000000e+000
          1.000000000000e+001 1.250000000000e+001 0.000000000000e+000
          1.000000000000e+001 1.500000000000e+001 0.000000000000e+000
          1.000000000000e+001 1.750000000000e+001 0.000000000000e+000
          1.000000000000e+001 2.000000000000e+001 0.000000000000e+000
          1.200000000000e+001 0.000000000000e+000 0.000000000000e+000
          1.200000000000e+001 2.500000000000e+000 0.000000000000e+000
          1.200000000000e+001 5.000000000000e+000 0.000000000000e+000
          1.200000000000e+001 7.500000000000e+000 0.000000000000e+000
          1.200000000000e+001 1.000000000000e+001 0.000000000000e+000
          1.200000000000e+001 1.250000000000e+001 0.000000000000e+000
          1.200000000000e+001 1.500000000000e+001 0.000000000000e+000
          1.200000000000e+001 1.750000000000e+001 0.000000000000e+000
          1.200000000000e+001 2.000000000000e+001 0.000000000000e+000
          1.400000000000e+001 0.000000000000e+000 0.000000000000e+000
          1.400000000000e+001 2.500000000000e+000 0.000000000000e+000
          1.400000000000e+001 5.000000000000e+000 0.000000000000e+000
          1.400000000000e+001 7.500000000000e+000 0.000000000000e+000
          1.400000000000e+001 1.000000000000e+001 0.000000000000e+000
          1.400000000000e+001 1.250000000000e+001 0.000000000000e+000
          1.400000000000e+001 1.500000000000e+001 0.000000000000e+000
          1.400000000000e+001 1.750000000000e+001 0.000000000000e+000
          1.400000000000e+001 2.000000000000e+001 0.000000000000e+000
          1.600000000000e+001 0.000000000000e+000 0.000000000000e+000
          1.600000000000e+001 2.500000000000e+000 0.000000000000e+000
          1.600000000000e+001 5.000000000000e+000 0.000000000000e+000
          1.600000000000e+001 7.500000000000e+000 0.000000000000e+000
          1.600000000000e+001 1.000000000000e+001 0.000000000000e+000
          1.600000000000e+001 1.250000000000e+001 0.000000000000e+000
          1.600000000000e+001 1.500000000000e+001 0.000000000000e+000
          1.600000000000e+001 1.750000000000e+001 0.000000000000e+000
          1.600000000000e+001 2.000000000000e+001 0.000000000000e+000
          1.800000000000e+001 0.000000000000e+000 0.000000000000e+000
          1.800000000000e+001 2.500000000000e+000 0.000000000000e+000
          1.800000000000e+001 5.000000000000e+000 0.000000000000e+000
          1.800000000000e+001 7.500000000000e+000 0.000000000000e+000
          1.800000000000e+001 1.000000000000e+001 0.000000000000e+000
          1.800000000000e+001 1.250000000000e+001 0.000000000000e+000
          1.800000000000e+001 1.500000000000e+001 0.000000000000e+000
          1.800000000000e+001 1.750000000000e+001 0.000000000000e+000
          1.800000000000e+001 2.000000000000e+001 0.000000000000e+000
          2.000000000000e+001 0.000000000000e+000 0.000000000000e+000
          2.000000000000e+001 2.500000000000e+000 0.000000000000e+000
          2.000000000000e+001 5.000000000000e+000 0.000000000000e+000
          2.000000000000e+001 7.500000000000e+000 0.000000000000e+000
          2.000000000000e+001 1.000000000000e+001 0.000000000000e+000
          2.000000000000e+001 1.250000000000e+001 0.000000000000e+000
          2.000000000000e+001 1.500000000000e+001 0.000000000000e+000
          2.000000000000e+001 1.750000000000e+001 0.000000000000e+000
          2.000000000000e+001 2.000000000000e+001 0.000000000000e+000
          2.200000000000e+001 0.000000000000e+000 0.000000000000e+000
          2.200000000000e+001 2.500000000000e+000 0.000000000000e+000
          2.200000000000e+001 5.000000000000e+000 0.000000000000e+000
          2.200000000000e+001 7.500000000000e+000 0.000000000000e+000
          2.200000000000e+001 1.000000000000e+001 0.000000000000e+000
          2.200000000000e+001 1.250000000000e+001 0.000000000000e+000
          2.200000000000e+001 1.500000000000e+001 0.000000000000e+000
          2.200000000000e+001 1.750000000000e+001 0.000000000000e+000
          2.200000000000e+001 2.000000000000e+001 0.000000000000e+000
          2.400000000000e+001 0.000000000000e+000 0.000000000000e+000
          2.400000000000e+001 2.500000000000e+000 0.000000000000e+000
          2.400000000000e+001 5.000000000000e+000 0.000000000000e+000
          2.400000000000e+001 7.500000000000e+000 0.000000000000e+000
          2.400000000000e+001 1.000000000000e+001 0.000000000000e+000
          2.400000000000e+001 1.250000000000e+001 0.000000000000e+000
          2.400000000000e+001 1.500000000000e+001 0.000000000000e+000
          2.400000000000e+001 1.750000000000e+001 0.000000000000e+000
          2.400000000000e+001 2.000000000000e+001 0.000000000000e+000
          2.600000000000e+001 0.000000000000e+000 0.000000000000e+000
          2.600000000000e+001 2.500000000000e+000 0.000000000000e+000
          2.600000000000e+001 5.000000000000e+000 0.000000000000e+000
          2.600000000000e+001 7.500000000000e+000 0.000000000000e+000
          2.600000000000e+001 1.000000000000e+001 0.000000000000e+000
          2.600000000000e+001 1.250000000000e+001 0.000000000000e+000
          2.600000000000e+001 1.500000000000e+001 0.000000000000e+000
          2.600000000000e+001 1.750000000000e+001 0.000000000000e+000
          2.600000000000e+001 2.000000000000e+001 0.000000000000e+000
          2.800000000000e+001 0.000000000000e+000 0.000000000000e+000
          2.800000000000e+001 2.500000000000e+000 0.000000000000e+000
          2.800000000000e+001 5.000000000000e+000 0.000000000000e+000
          2.800000000000e+001 7.500000000000e+000 0.000000000000e+000
          2.800000000000e+001 1.000000000000e+001 0.000000000000e+000
          2.800000000000e+001 1.250000000000e+001 0.000000000000e+000
          2.800000000000e+001 1.500000000000e+001 0.000000000000e+000
          2.800000000000e+001 1.750000000000e+001 0.000000000000e+000
          2.800000000000e+001 2.000000000000e+001 0.000000000000e+000
          3.000000000000e+001 0.000000000000e+000 0.000000000000e+000
          3.000000000000e+001 2.500000000000e+000 0.000000000000e+000
          3.000000000000e+001 5.000000000000e+000 0.000000000000e+000
          3.000000000000e+001 7.500000000000e+000 0.000000000000e+000
[...]
      <PointData Scalars="CAPILLARY_PRESSURE">
        <DataArray type="Float64" Name="CAPILLARY_PRESSURE" format="ascii">
          2.853894954597e+005 2.825905706254e+005 2.825905706254e+005 2.853894954597e+005 2.825905706254e+005 2.853894954597e+005 2.825905706254e+005 2.853894954597e+005 2.825905706254e+005 2.853894954597e+005 2.825905706254e+005 2.853894954597e+005 2.825905706254e+005 2.853894954597e+005 2.825905706254e+005 2.853894954597e+005 2.825905706254e+005 2.853894954597e+005 2.797961094836e+005 2.797961094836e+005 2.797961094836e+005 2.797961094836e+005 2.797961094836e+005 2.797961094836e+005 2.797961094836e+005 2.797961094836e+005 2.797961094836e+005 2.770050350026e+005 2.770050350026e+005 2.770050350026e+005 2.770050350026e+005 2.770050350026e+005 2.770050350026e+005 2.770050350026e+005 2.770050350026e+005 2.770050350026e+005 2.742165846337e+005 2.742165846337e+005 2.742165846337e+005 2.742165846337e+005 2.742165846337e+005 2.742165846337e+005 2.742165846337e+005 2.742165846337e+005 2.742165846337e+005 2.714298958420e+005 2.714298958420e+005 2.714298958420e+005 2.714298958420e+005 2.714298958420e+005 2.714298958420e+005 2.714298958420e+005 2.714298958420e+005 2.714298958420e+005 2.686440781858e+005 2.686440781858e+005 2.686440781858e+005 2.686440781858e+005 2.686440781858e+005 2.686440781858e+005 2.686440781858e+005 2.686440781858e+005 2.686440781858e+005 2.658581808323e+005 2.658581808323e+005 2.658581808323e+005 2.658581808323e+005 2.658581808323e+005 2.658581808323e+005 2.658581808323e+005 2.658581808323e+005 2.658581808323e+005 2.630711998115e+005 2.630711998115e+005 2.630711998115e+005 2.630711998115e+005 2.630711998115e+005 2.630711998115e+005 2.630711998115e+005 2.630711998115e+005 2.630711998115e+005 2.602820746966e+005 2.602820746966e+005 2.602820746966e+005 2.602820746966e+005 2.602820746966e+005 2.602820746966e+005 2.602820746966e+005 2.602820746966e+005 2.602820746966e+005 2.574896843952e+005 2.574896843952e+005 2.574896843952e+005 2.574896843952e+005 2.574896843952e+005 2.574896843952e+005 2.574896843952e+005 2.574896843952e+005 2.574896843952e+005 2.546928419580e+005 2.546928419580e+005 2.546928419580e+005 2.546928419580e+005 2.546928419580e+005 2.546928419580e+005 2.546928419580e+005 2.546928419580e+005 2.546928419580e+005 2.518902891825e+005 2.518902891825e+005 2.518902891825e+005 2.518902891825e+005 2.518902891825e+005 2.518902891825e+005 2.518902891825e+005 2.518902891825e+005 2.518902891825e+005 2.490806909497e+005 2.490806909497e+005 2.490806909497e+005 2.490806909497e+005 2.490806909497e+005 2.490806909497e+005 2.490806909497e+005 2.490806909497e+005 2.490806909497e+005 2.462626291355e+005 2.462626291355e+005 2.462626291355e+005 2.462626291355e+005 2.462626291355e+005 2.462626291355e+005 2.462626291355e+005 2.462626291355e+005 2.462626291355e+005 2.434345958226e+005 2.434345958226e+005 2.434345958226e+005 2.434345958226e+005 2.434345958226e+005 2.434345958226e+005 2.434345958226e+005 2.434345958226e+005 2.434345958226e+005 2.405949856231e+005 2.405949856231e+005 2.405949856231e+005 2.405949856231e+005 2.405949856231e+005 2.405949856231e+005 2.405949856231e+005 2.405949856231e+005 2.405949856231e+005 2.377420869656e+005 2.377420869656e+005 2.377420869656e+005 2.377420869656e+005 2.377420869656e+005 2.377420869656e+005 2.377420869656e+005 2.377420869656e+005 2.377420869656e+005 2.348740722099e+005 2.348740722099e+005 2.348740722099e+005 2.348740722099e+005 2.348740722099e+005 2.348740722099e+005 2.348740722099e+005 2.348740722099e+005 2.348740722099e+005 2.319889864313e+005 2.319889864313e+005 2.319889864313e+005 2.319889864313e+005 2.319889864313e+005 2.319889864313e+005 2.319889864313e+005 2.319889864313e+005 2.319889864313e+005 2.290847346990e+005 2.290847346990e+005 2.290847346990e+005 2.290847346990e+005 2.290847346990e+005 2.290847346990e+005 2.290847346990e+005 2.290847346990e+005 2.290847346990e+005 2.261590676357e+005 2.261590676357e+005 2.261590676357e+005 2.261590676357e+005 2.261590676357e+005 2.261590676357e+005 2.261590676357e+005 2.261590676357e+005 2.261590676357e+005 2.232095649981e+005 2.232095649981e+005 2.232095649981e+005 2.232095649981e+005 2.232095649981e+005 2.232095649981e+005 2.232095649981e+005 2.232095649981e+005 2.232095649981e+005 2.202336169628e+005 2.202336169628e+005 2.202336169628e+005 2.202336169628e+005 2.202336169628e+005 2.202336169628e+005 2.202336169628e+005 2.202336169628e+005 2.202336169628e+005 2.172284027318e+005 2.172284027318e+005 2.172284027318e+005 2.172284027318e+005 2.172284027318e+005 2.172284027318e+005 2.172284027318e+005 2.172284027318e+005 2.172284027318e+005 2.141908659868e+005 2.141908659868e+005 2.141908659868e+005 2.141908659868e+005 2.141908659868e+005 2.141908659868e+005 2.141908659868e+005 2.141908659868e+005 2.141908659868e+005 2.111176866197e+005 2.111176866197e+005 2.111176866197e+005 2.111176866197e+005 2.111176866197e+005 2.111176866197e+005 2.111176866197e+005 2.111176866197e+005 2.111176866197e+005 2.080052480381e+005 2.080052480381e+005 2.080052480381e+005 2.080052480381e+005 2.080052480381e+005 2.080052480381e+005 2.080052480381e+005 2.080052480381e+005 2.080052480381e+005 2.048495991833e+005 2.048495991833e+005 2.048495991833e+005 2.048495991833e+005 2.048495991833e+005 2.048495991833e+005 2.048495991833e+005 2.048495991833e+005 2.048495991833e+005 2.016464101910e+005 2.016464101910e+005 2.016464101910e+005 2.016464101910e+005 2.016464101910e+005 2.016464101910e+005 2.016464101910e+005 2.016464101910e+005 2.016464101910e+005 1.983909203628e+005 1.983909203628e+005 1.983909203628e+005 1.983909203628e+005 1.983909203628e+005 1.983909203628e+005 1.983909203628e+005 1.983909203628e+005 1.983909203628e+005 1.950778767667e+005 1.950778767667e+005 1.950778767667e+005 1.950778767667e+005 1.950778767667e+005 1.950778767667e+005 1.950778767667e+005 1.950778767667e+005 1.950778767667e+005 1.917014613353e+005 1.917014613353e+005 1.917014613353e+005 1.917014613353e+005 1.917014613353e+005 1.917014613353e+005 1.917014613353e+005 1.917014613353e+005 1.917014613353e+005 1.882552037300e+005 1.882552037300e+005 1.882552037300e+005 1.882552037300e+005 1.882552037300e+005 1.882552037300e+005 1.882552037300e+005 1.882552037300e+005 1.882552037300e+005 1.847318764374e+005 1.847318764374e+005 1.847318764374e+005 1.847318764374e+005 1.847318764374e+005 1.847318764374e+005 1.847318764374e+005 1.847318764374e+005 1.847318764374e+005 1.811233674897e+005 1.811233674897e+005 1.811233674897e+005 1.811233674897e+005 1.811233674897e+005 1.811233674897e+005 1.811233674897e+005 1.811233674897e+005 1.811233674897e+005 1.774205247459e+005 1.774205247459e+005 1.774205247459e+005 1.774205247459e+005 1.774205247459e+005 1.774205247459e+005 1.774205247459e+005 1.774205247459e+005 1.774205247459e+005 1.736129636819e+005 1.736129636819e+005 1.736129636819e+005 1.736129636819e+005 1.736129636819e+005 1.736129636819e+005 1.736129636819e+005 1.736129636819e+005 1.736129636819e+005 1.696888279109e+005 1.696888279109e+005 1.696888279109e+005 1.696888279109e+005 1.696888279109e+005 1.696888279109e+005 1.696888279109e+005 1.696888279109e+005 1.696888279109e+005 1.656344878534e+005 1.656344878534e+005 1.656344878534e+005 1.656344878534e+005 1.656344878534e+005 1.656344878534e+005 1.656344878534e+005 1.656344878534e+005 1.656344878534e+005 1.614341575855e+005 1.614341575855e+005 1.614341575855e+005 1.614341575855e+005 1.614341575855e+005 1.614341575855e+005 1.614341575855e+005 1.614341575855e+005 1.614341575855e+005 1.570694021051e+005 1.570694021051e+005 1.570694021051e+005 1.570694021051e+005 1.570694021051e+005 1.570694021051e+005 1.570694021051e+005 1.570694021051e+005 1.570694021051e+005 1.525184957257e+005 1.525184957257e+005 1.525184957257e+005 1.525184957257e+005 1.525184957257e+005 1.525184957257e+005 1.525184957257e+005 1.525184957257e+005 1.525184957257e+005 1.477555748298e+005 1.477555748298e+005 1.477555748298e+005 1.477555748298e+005 1.477555748298e+005 1.477555748298e+005 1.477555748298e+005 1.477555748298e+005 1.477555748298e+005 1.427494999526e+005 1.427494999526e+005 1.427494999526e+005 1.427494999526e+005 1.427494999526e+005 1.427494999526e+005 1.427494999526e+005 1.427494999526e+005 1.427494999526e+005 1.374623003732e+005 1.374623003732e+005 1.374623003732e+005 1.374623003733e+005 1.374623003733e+005 1.374623003733e+005 1.374623003733e+005 1.374623003733e+005 1.374623003733e+005 1.318469988086e+005 1.318469988086e+005 1.318469988086e+005 1.318469988086e+005 1.318469988086e+005 1.318469988086e+005 1.318469988086e+005 1.318469988086e+005 1.318469988086e+005 1.258444894232e+005 1.258444894231e+005 1.258444894231e+005 1.258444894231e+005 1.258444894231e+005 1.258444894231e+005 1.258444894231e+005 1.258444894231e+005 1.258444894231e+005 1.193789041445e+005 1.193789041445e+005 1.193789041445e+005 1.193789041446e+005 1.193789041445e+005 1.193789041446e+005 1.193789041445e+005 1.193789041445e+005 1.193789041445e+005 1.123504879602e+005 1.123504879603e+005 1.123504879603e+005 1.123504879602e+005 1.123504879602e+005 1.123504879602e+005 1.123504879603e+005 1.123504879601e+005 1.123504879603e+005 1.046241635368e+005 1.046241635361e+005 1.046241635363e+005 1.046241635365e+005 1.046241635364e+005 1.046241635362e+005 1.046241635362e+005 1.046241635364e+005 1.046241635361e+005 9.601030464884e+004 9.601030465136e+004 9.601030465035e+004 9.601030465051e+004 9.601030465021e+004 9.601030465081e+004 9.601030465050e+004 9.601030465009e+004 9.601030465056e+004 8.623095729147e+004 8.623095728421e+004 8.623095728784e+004 8.623095728512e+004 8.623095728711e+004 8.623095728577e+004 8.623095728547e+004 8.623095728724e+004 8.623095728539e+004 7.485721579888e+004 7.485721581557e+004 7.485721580722e+004 7.485721581873e+004 7.485721581149e+004 7.485721581181e+004 7.485721581949e+004 7.485721580857e+004 7.485721582027e+004 6.118352338889e+004 6.118352336436e+004 6.118352338048e+004 6.118352335369e+004 6.118352337060e+004 6.118352338211e+004 6.118352334476e+004 6.118352339278e+004 6.118352334103e+004 4.396914868083e+004 4.396914868607e+004 4.396914866831e+004 4.396914871548e+004 4.396914870119e+004 4.396914865649e+004 4.396914874707e+004 4.396914864278e+004 4.396914876420e+004 2.100727249806e+004 2.100727260762e+004 2.100727255304e+004 2.100727235245e+004 2.100727240247e+004 2.100727250455e+004 2.100727241217e+004 2.100727234071e+004 2.100727231386e+004 -8.921472966178e+003 -8.921474042487e+003 -8.921473403029e+003 -8.921471406341e+003 -8.921471751290e+003 -8.921473661646e+003 -8.921471273111e+003 -8.921472266508e+003 -8.921470215101e+003 -3.989153158391e+004 -3.989153224909e+004 -3.989153108241e+004 -3.989153156569e+004 -3.989153051129e+004 -3.989153231444e+004 -3.989153151932e+004 -3.989153080033e+004 -3.989153300382e+004 -7.030748516010e+004 -7.030748671418e+004 -7.030748866801e+004 -7.030748915076e+004 -7.030749183182e+004 -7.030748853468e+004 -7.030748811793e+004 -7.030748948812e+004 -7.030749132700e+004 -1.001569077435e+005 -1.001569085925e+005 -1.001569127016e+005 -1.001569133227e+005 -1.001569125674e+005 -1.001569093983e+005 -1.001569112076e+005 -1.001569126916e+005 -1.001569139096e+005 -1.294583578353e+005 -1.294583613145e+005 -1.294583617827e+005 -1.294583615305e+005 -1.294583589265e+005 -1.294583601190e+005 -1.294583623797e+005 -1.294583599030e+005 -1.294583608223e+005 -1.582280857370e+005 -1.582280861343e+005 -1.582280861895e+005 -1.582280859283e+005 -1.582280852911e+005 -1.582280838125e+005 -1.582280865328e+005 -1.582280850126e+005 -1.582280847605e+005 -1.864825398796e+005 -1.864825369051e+005 -1.864825387083e+005 -1.864825378848e+005 -1.864825352621e+005 -1.864825367011e+005 -1.864825384696e+005 -1.864825379615e+005 -1.864825378448e+005 -2.142373128088e+005 -2.142373141527e+005 -2.142373143035e+005 -2.142373151290e+005 -2.142373116965e+005 -2.142373118253e+005 -2.142373152140e+005 -2.142373146773e+005 -2.142373131825e+005 -2.415076791751e+005 -2.415076802730e+005 -2.415076796371e+005 -2.415076784758e+005 -2.415076770213e+005 -2.415076780852e+005 -2.415076810326e+005 -2.415076807020e+005 -2.415076782342e+005 -2.683087063345e+005 -2.683087073253e+005 -2.683087071643e+005 -2.683087078178e+005 -2.683087049717e+005 -2.683087064588e+005 -2.683087086267e+005 -2.683087076765e+005 -2.683087060211e+005 -2.946553352704e+005 -2.946553362771e+005 -2.946553376019e+005 -2.946553350082e+005 -2.946553352891e+005 -2.946553364424e+005 -2.946553368071e+005 -2.946553378291e+005 -2.946553344236e+005 -3.205623501872e+005 -3.205623510928e+005 -3.205623506798e+005 -3.205623487326e+005 -3.205623507869e+005 -3.205623503688e+005 -3.205623495373e+005 -3.205623498195e+005 -3.205623492151e+005 -3.460443592307e+005 -3.460443584653e+005 -3.460443580515e+005 -3.460443577086e+005 -3.460443548445e+005 -3.460443549892e+005 -3.460443575274e+005 -3.460443562182e+005 -3.460443559915e+005 -3.711157736724e+005 -3.711157711943e+005 -3.711157709754e+005 -3.711157691863e+005 -3.711157674956e+005 -3.711157678908e+005 -3.711157703210e+005 -3.711157691201e+005 -3.711157700827e+005 -3.957908231356e+005 -3.957908223804e+005 -3.957908223764e+005 -3.957908215599e+005 -3.957908207975e+005 -3.957908207155e+005 -3.957908219457e+005 -3.957908223333e+005 -3.957908220885e+005 -4.200835829416e+005 -4.200835851306e+005 -4.200835856369e+005 -4.200835863574e+005 -4.200835849497e+005 -4.200835857189e+005 -4.200835870266e+005 -4.200835857401e+005 -4.200835849522e+005 -4.440080002496e+005 -4.440079981508e+005 -4.440080007286e+005 -4.440080008851e+005 -4.440079995993e+005 -4.440080019623e+005 -4.440080005573e+005 -4.440080007924e+005 -4.440080002544e+005 -4.675778981954e+005 -4.675778968332e+005 -4.675778966605e+005 -4.675778964135e+005 -4.675778960549e+005 -4.675778979014e+005 -4.675778975640e+005 -4.675778980827e+005 -4.675778961775e+005 -4.908070175456e+005 -4.908070208750e+005 -4.908070213302e+005 -4.908070211227e+005 -4.908070205020e+005 -4.908070221113e+005 -4.908070218062e+005 -4.908070219665e+005 -4.908070225593e+005 -5.137090464135e+005 -5.137090498340e+005 -5.137090489102e+005 -5.137090489447e+005 -5.137090519300e+005 -5.137090499920e+005 -5.137090513540e+005 -5.137090513846e+005 -5.137090516776e+005 -5.362976003106e+005 -5.362976018545e+005 -5.362976022908e+005 -5.362976012468e+005 -5.362976026042e+005 -5.362976030447e+005 -5.362976041899e+005 -5.362976027395e+005 -5.362976029754e+005 -5.585862459941e+005 -5.585862448627e+005 -5.585862450569e+005 -5.585862463627e+005 -5.585862449942e+005 -5.585862458195e+005 -5.585862459257e+005 -5.585862454823e+005 -5.585862450514e+005 -5.805885000845e+005 -5.805885012438e+005 -5.805884996538e+005 -5.805885002627e+005 -5.805885000834e+005 -5.805885008465e+005 -5.805885009290e+005 -5.805884998473e+005 -5.805885010784e+005 -6.023178458837e+005 -6.023178429576e+005 -6.023178422902e+005 -6.023178437650e+005 -6.023178428860e+005 -6.023178421334e+005 -6.023178427491e+005 -6.023178422130e+005 -6.023178435963e+005 -6.237877100188e+005 -6.237877069952e+005 -6.237877055184e+005 -6.237877068706e+005 -6.237877070091e+005 -6.237877073240e+005 -6.237877071474e+005 -6.237877076265e+005 -6.237877055491e+005 -6.450114850985e+005 -6.450114840470e+005 -6.450114827278e+005 -6.450114835892e+005 -6.450114841699e+005 -6.450114839971e+005 -6.450114841690e+005 -6.450114829237e+005 -6.450114829131e+005 -6.660025246689e+005 -6.660025227409e+005 -6.660025215544e+005 -6.660025219004e+005 -6.660025214270e+005 -6.660025199455e+005 -6.660025217095e+005 -6.660025211452e+005 -6.660025206154e+005 -6.867741328029e+005 -6.867741299393e+005 -6.867741292524e+005 -6.867741274121e+005 -6.867741275076e+005 -6.867741272422e+005 -6.867741275067e+005 -6.867741261841e+005 -6.867741254626e+005 -7.073395732183e+005 -7.073395722840e+005 -7.073395712511e+005 -7.073395698820e+005 -7.073395692825e+005 -7.073395683986e+005 -7.073395685060e+005 -7.073395671138e+005 -7.073395676367e+005 -7.277120772243e+005 -7.277120770734e+005 -7.277120749038e+005 -7.277120761997e+005 -7.277120738984e+005 -7.277120734669e+005 -7.277120731873e+005 -7.277120720455e+005 -7.277120709511e+005 -7.479048346680e+005 -7.479048336769e+005 -7.479048346115e+005 -7.479048323347e+005 -7.479048320102e+005 -7.479048308576e+005 -7.479048306302e+005 -7.479048304360e+005 -7.479048293624e+005 -7.679309980058e+005 -7.679309995839e+005 -7.679309989470e+005 -7.679309987675e+005 -7.679309973359e+005 -7.679309969061e+005 -7.679309960501e+005 -7.679309946553e+005 -7.679309939805e+005 -7.878036918661e+005 -7.878036937458e+005 -7.878036944765e+005 -7.878036930116e+005 -7.878036914013e+005 -7.878036915041e+005 -7.878036899327e+005 -7.878036885831e+005 -7.878036884262e+005 -8.075360034025e+005 -8.075360057392e+005 -8.075360055926e+005 -8.075360055587e+005 -8.075360045870e+005 -8.075360028126e+005 -8.075360016226e+005 -8.075360013274e+005 -8.075360006515e+005 -8.271409965216e+005 -8.271409945798e+005 -8.271409954420e+005 -8.271409953765e+005 -8.271409950619e+005 -8.271409925019e+005 -8.271409914789e+005 -8.271409922779e+005 -8.271409919476e+005 -8.466316978380e+005 -8.466316972717e+005 -8.466316970349e+005 -8.466316969386e+005 -8.466316959697e+005 -8.466316937332e+005 -8.466316943783e+005 -8.466316937470e+005 -8.466316940781e+005 -8.660211200583e+005 -8.660211192808e+005 -8.660211192325e+005 -8.660211178032e+005 -8.660211176514e+005 -8.660211166072e+005 -8.660211163291e+005 -8.660211157389e+005 -8.660211164474e+005 -8.853222482609e+005 -8.853222473601e+005 -8.853222477308e+005 -8.853222473635e+005 -8.853222462286e+005 -8.853222461095e+005 -8.853222454894e+005 -8.853222454196e+005 -8.853222442262e+005 -9.045480493063e+005 -9.045480499771e+005 -9.045480507525e+005 -9.045480502919e+005 -9.045480495558e+005 -9.045480498562e+005 -9.045480492068e+005 -9.045480492410e+005 -9.045480489678e+005 -9.237114770388e+005 -9.237114778096e+005 -9.237114783530e+005 -9.237114777683e+005 -9.237114777228e+005 -9.237114779449e+005 -9.237114771292e+005 -9.237114776605e+005 -9.237114777306e+005 -9.428254668315e+005 -9.428254669453e+005 -9.428254672889e+005 -9.428254674145e+005 -9.428254662714e+005 -9.428254661111e+005 -9.428254664155e+005 -9.428254666811e+005 -9.428254665237e+005 -9.619029403999e+005 -9.619029412222e+005 -9.619029418541e+005 -9.619029417814e+005 -9.619029414768e+005 -9.619029407984e+005 -9.619029407983e+005 -9.619029409685e+005 -9.619029410807e+005 -9.809568161610e+005 -9.809568165929e+005 -9.809568168448e+005 -9.809568166947e+005 -9.809568167879e+005 -9.809568163288e+005 -9.809568163284e+005 -9.809568164923e+005 -9.809568163344e+005 -1.000000000000e+006 -1.000000000000e+006 -1.000000000000e+006 -1.000000000000e+006 -1.000000000000e+006 -1.000000000000e+006 -1.000000000000e+006 -1.000000000000e+006 -1.000000000000e+006 
        </DataArray>
        <DataArray type="Float64" Name="NONWET_PRESSURE" format="ascii">