<?xml version="1.0"?>
<VTKFile type="UnstructuredGrid" version="0.1" byte_order="LittleEndian">
  <UnstructuredGrid>
    <Piece NumberOfPoints="909" NumberOfCells="800">
      <Points>
        <DataArray type="Float64" NumberOfComponents="3" format="ascii">
          0.000000000000e+000 0.000000000000e+000 0.000000000000e+000
          2.000000000000e+000 0.000000000000e+000 0.000000000000e+000
          2.000000000000e+000 2.500000000000e+000 0.000000000000e+000
          0.000000000000e+000 2.500000000000e+000 0.000000000000e+000
          2.000000000000e+000 5.000000000000e+000 0.000000000000e+000
          0.000000000000e+000 5.000000000000e+000 0.000000000000e+000
          2.000000000000e+000 7.500000000000e+000 0.000000000000e+000
          0.000000000000e+000 7.500000000000e+000 0.000000000000e+000
          2.000000000000e+000 1.000000000000e+001 0.000000000000e+000
          0.000000000000e+000 1.000000000000e+001 0.000000000000e+000
          2.000000000000e+000 1.250000000000e+001 0.000000000000e+000
          0.000000000000e+000 1.250000000000e+001 0.000000000000e+000
          2.000000000000e+000 1.500000000000e+001 0.000000000000e+000
          0.000000000000e+000 1.500000000000e+001 0.000000000000e+000
          2.000000000000e+000 1.750000000000e+001 0.000000000000e+000
          0.000000000000e+000 1.750000000000e+001 0.000000000000e+000
          2.000000000000e+000 2.000000000000e+001 0.000000000000e+000
          0.000000000000e+000 2.000000000000e+001 0.000000000000e+000
          4.000000000000e+000 0.000000000000e+000 0.000000000000e+000
          4.000000000000e+000 2.500000000000e+000 0.000000000000e+000
          4.000000000000e+000 5.000000000000e+000 0.000000000000e+000
          4.000000000000e+000 7.500000000000e+000 0.000000000000e+000
          4.000000000000e+000 1.000000000000e+001 0.000000000000e+000
          4.000000000000e+000 1.250000000000e+001 0.000000000000e+000
          4.000000000000e+000 1.500000000000e+001 0.000000000000e+000
          4.000000000000e+000 1.750000000000e+001 0.000000000000e+000
          4.000000000000e+000 2.000000000000e+001 0.000000000000e+000
          6.000000000000e+000 0.000000000000e+000 0.000000000000e+000
          6.000000000000e+000 2.500000000000e+000 0.000000000000e+000
          6.000000000000e+000 5.000000000000e+000 0.000000000000e+000
          6.000000000000e+000 7.500000000000e+000 0.000000000000e+000
          6.000000000000e+000 1.000000000000e+001 0.000000000000e+000
          6.000000000000e+000 1.250000000000e+001 0.000000000000e+000
          6.000000000000e+000 1.500000000000e+001 0.000000000000e+000
          6.000000000000e+000 1.750000000000e+001 0.000000000000e+000
          6.000000000000e+000 2.000000000000e+001 0.000000000000e+000
          8.000000000000e+000 0.000000000000e+000 0.000000000000e+000
          8.000000000000e+000 2.500000000000e+000 0.000000000000e+000
          8.000000000000e+000 5.000000000000e+000 0.000000000000e+000
          8.000000000000e+000 7.500000000000e+000 0.000000000000e+000
          8.000000000000e+000 1.000000000000e+001 0.000000000000e+000
          8.000000000000e+000 1.250000000000e+001 0.000000000000e+000
          8.000000000000e+000 1.500000000000e+001 0.000000000000e+000
          8.000000000000e+000 1.750000000000e+001 0.000000000000e+000
          8.000000000000e+000 2.000000000000e+001 0.000000000000e+000
          1.000000000000e+001 0.000000000000e+000 0.000000000000e+000
          1.000000000000e+001 2.500000000000e+000 0.000000000000e+000
          1.000000000000e+001 5.000000000000e+000 0.000000000000e+000
          1.000000000000e+001 7.500000000000e+000 0.000000000000e+000
          1.000000000000e+001 1.000000000000e+001 0.000000000000e+000
          1.000000000000e+001 1.250000000000e+001 0.000000000000e+000
          1.000000000000e+001 1.500000000000e+001 0.000000000000e+000
          1.000000000000e+001 1.750000000000e+001 0.000000000000e+000
          1.000000000000e+001 2.000000000000e+001 0.000000000000e+000
          1.200000000000e+001 0.000000000000e+000 0.000000000000e+000
          1.200000000000e+001 2.500000000000e+000 0.000000000000e+000
          1.200000000000e+001 5.000000000000e+000 0.000000000000e+000
          1.200000000000e+001 7.500000000000e+000 0.000000000000e+000
          1.200000000000e+001 1.000000000000e+001 0.000000000000e+000
          1.200000000000e+001 1.250000000000e+001 0.000000000000e+000
          1.200000000000e+001 1.500000000000e+001 0.000000000000e+000
          1.200000000000e+001 1.750000000000e+001 0.000000000000e+000
          1.200000000000e+001 2.000000000000e+001 0.000000000000e+000
          1.400000000000e+001 0.000000000000e+000 0.000000000000e+000
          1.400000000000e+001 2.500000000000e+000 0.000000000000e+000
          1.400000000000e+001 5.000000000000e+000 0.000000000000e+000
          1.400000000000e+001 7.500000000000e+000 0.000000000000e+000
          1.400000000000e+001 1.000000000000e+001 0.000000000000e+000
          1.400000000000e+001 1.250000000000e+001 0.000000000000e+000
          1.400000000000e+001 1.500000000000e+001 0.000000000000e+000
          1.400000000000e+001 1.750000000000e+001 0.000000000000e+000
          1.400000000000e+001 2.000000000000e+001 0.000000000000e+000
          1.600000000000e+001 0.000000000000e+000 0.000000000000e+000
          1.600000000000e+001 2.500000000000e+000 0.000000000000e+000
          1.600000000000e+001 5.000000000000e+000 0.000000000000e+000
          1.600000000000e+001 7.500000000000e+000 0.000000000000e+000
          1.600000000000e+001 1.000000000000e+001 0.000000000000e+000
          1.600000000000e+001 1.250000000000e+001 0.000000000000e+000
          1.600000000000e+001 1.500000000000e+001 0.000000000000e+000
          1.600000000000e+001 1.750000000000e+001 0.000000000000e+000
          1.600000000000e+001 2.000000000000e+001 0.000000000000e+000
          1.800000000000e+001 0.000000000000e+000 0.000000000000e+000
          1.800000000000e+001 2.500000000000e+000 0.000000000000e+000
          1.800000000000e+001 5.000000000000e+000 0.000000000000e+000
          1.800000000000e+001 7.500000000000e+000 0.000000000000e+000
          1.800000000000e+001 1.000000000000e+001 0.000000000000e+000
          1.800000000000e+001 1.250000000000e+001 0.000000000000e+000
          1.800000000000e+001 1.500000000000e+001 0.000000000000e+000
          1.800000000000e+001 1.750000000000e+001 0.000000000000e+000
          1.800000000000e+001 2.000000000000e+001 0.000000000000e+000
          2.000000000000e+001 0.000000000000e+000 0.000000000000e+000
          2.000000000000e+001 2.500000000000e+000 0.000000000000e+000
          2.000000000000e+001 5.000000000000e+000 0.000000000000e+000
          2.000000000000e+001 7.500000000000e+000 0.000000000000e+000
          2.000000000000e+001 1.000000000000e+001 0.000000000000e+000
          2.000000000000e+001 1.250000000000e+001 0.000000000000e+000
          2.000000000000e+001 1.500000000000e+001 0.000000000000e+000
          2.000000000000e+001 1.750000000000e+001 0.000000000000e+000
          2.000000000000e+001 2.000000000000e+001 0.000000000000e+000
          2.200000000000e+001 0.000000000000e+000 0.000000000000e+000
          2.200000000000e+001 2.500000000000e+000 0.000000000000e+000
          2.200000000000e+001 5.000000000000e+000 0.000000000000e+000
          2.200000000000e+001 7.500000000000e+000 0.000000000000e+000
          2.200000000000e+001 1.000000000000e+001 0.000000000000e+000
          2.200000000000e+001 1.250000000000e+001 0.000000000000e+000
          2.200000000000e+001 1.500000000000e+001 0.000000000000e+000
          2.200000000000e+001 1.750000000000e+001 0.000000000000e+000
          2.200000000000e+001 2.000000000000e+001 0.000000000000e+000
          2.400000000000e+001 0.000000000000e+000 0.000000000000e+000
          2.400000000000e+001 2.500000000000e+000 0.000000000000e+000
          2.400000000000e+001 5.000000000000e+000 0.000000000000e+000
          2.400000000000e+001 7.500000000000e+000 0.000000000000e+000
          2.400000000000e+001 1.000000000000e+001 0.000000000000e+000
          2.400000000000e+001 1.250000000000e+001 0.000000000000e+000
          2.400000000000e+001 1.500000000000e+001 0.000000000000e+000
          2.400000000000e+001 1.750000000000e+001 0.000000000000e+000
          2.400000000000e+001 2.000000000000e+001 0.000000000000e+000
          2.600000000000e+001 0.000000000000e+000 0.000000000000e+000
          2.600000000000e+001 2.500000000000e+000 0.000000000000e+000
          2.600000000000e+001 5.000000000000e+000 0.000000000000e+000
          2.600000000000e+001 7.500000000000e+000 0.000000000000e+000
          2.600000000000e+001 1.000000000000e+001 0.000000000000e+000
          2.600000000000e+001 1.250000000000e+001 0.000000000000e+000
          2.600000000000e+001 1.500000000000e+001 0.000000000000e+000
          2.600000000000e+001 1.750000000000e+001 0.000000000000e+000
          2.600000000000e+001 2.000000000000e+001 0.000000000000e+000
          2.800000000000e+001 0.000000000000e+000 0.000000000000e+000
          2.800000000000e+001 2.500000000000e+000 0.000000000000e+000
          2.800000000000e+001 5.000000000000e+000 0.000000000000e+000
          2.800000000000e+001 7.500000000000e+000 0.000000000000e+000
          2.800000000000e+001 1.000000000000e+001 0.000000000000e+000
          2.800000000000e+001 1.250000000000e+001 0.000000000000e+000
          2.800000000000e+001 1.500000000000e+001 0.000000000000e+000
          2.800000000000e+001 1.750000000000e+001 0.000000000000e+000
          2.800000000000e+001 2.000000000000e+001 0.000000000000e+000
          3.000000000000e+001 0.000000000000e+000 0.000000000000e+000
          3.000000000000e+001 2.500000000000e+000 0.000000000000e+000
          3.000000000000e+001 5.000000000000e+000 0.000000000000e+000
          3.000000000000e+001 7.500000000000e+000 0.000000000000e+000
[...]
      <PointData Scalars="CAPILLARY_PRESSURE">
        <DataArray type="Float64" Name="CAPILLARY_PRESSURE" format="ascii">
          2.751152897608e+005 2.721334819930e+005 2.721334819930e+005 2.751152897608e+005 2.721334819930e+005 2.751152897608e+005 2.721334819930e+005 2.751152897608e+005 2.721334819930e+005 2.751152897608e+005 2.721334819930e+005 2.751152897608e+005 2.721334819930e+005 2.751152897608e+005 2.721334819930e+005 2.751152897608e+005 2.721334819930e+005 2.751152897608e+005 2.691536500509e+005 2.691536500509e+005 2.691536500509e+005 2.691536500509e+005 2.691536500509e+005 2.691536500509e+005 2.691536500509e+005 2.691536500509e+005 2.691536500509e+005 2.661740010826e+005 2.661740010826e+005 2.661740010826e+005 2.661740010826e+005 2.661740010826e+005 2.661740010826e+005 2.661740010826e+005 2.661740010826e+005 2.661740010826e+005 2.631934924078e+005 2.631934924078e+005 2.631934924078e+005 2.631934924078e+005 2.631934924078e+005 2.631934924078e+005 2.631934924078e+005 2.631934924078e+005 2.631934924078e+005 2.602110060983e+005 2.602110060983e+005 2.602110060983e+005 2.602110060983e+005 2.602110060983e+005 2.602110060983e+005 2.602110060983e+005 2.602110060983e+005 2.602110060983e+005 2.572253383664e+005 2.572253383664e+005 2.572253383664e+005 2.572253383664e+005 2.572253383664e+005 2.572253383664e+005 2.572253383664e+005 2.572253383664e+005 2.572253383664e+005 2.542352149864e+005 2.542352149864e+005 2.542352149864e+005 2.542352149864e+005 2.542352149864e+005 2.542352149864e+005 2.542352149864e+005 2.542352149864e+005 2.542352149864e+005 2.512392787343e+005 2.512392787343e+005 2.512392787343e+005 2.512392787343e+005 2.512392787343e+005 2.512392787343e+005 2.512392787343e+005 2.512392787343e+005 2.512392787343e+005 2.482360855549e+005 2.482360855549e+005 2.482360855549e+005 2.482360855549e+005 2.482360855549e+005 2.482360855549e+005 2.482360855549e+005 2.482360855549e+005 2.482360855549e+005 2.452240971989e+005 2.452240971989e+005 2.452240971989e+005 2.452240971989e+005 2.452240971989e+005 2.452240971989e+005 2.452240971989e+005 2.452240971989e+005 2.452240971989e+005 2.422016731759e+005 2.422016731759e+005 2.422016731759e+005 2.422016731759e+005 2.422016731759e+005 2.422016731759e+005 2.422016731759e+005 2.422016731759e+005 2.422016731759e+005 2.391670614337e+005 2.391670614337e+005 2.391670614337e+005 2.391670614337e+005 2.391670614337e+005 2.391670614337e+005 2.391670614337e+005 2.391670614337e+005 2.391670614337e+005 2.361183878115e+005 2.361183878115e+005 2.361183878115e+005 2.361183878115e+005 2.361183878115e+005 2.361183878115e+005 2.361183878115e+005 2.361183878115e+005 2.361183878115e+005 2.330536441448e+005 2.330536441448e+005 2.330536441448e+005 2.330536441448e+005 2.330536441448e+005 2.330536441448e+005 2.330536441448e+005 2.330536441448e+005 2.330536441448e+005 2.299706747996e+005 2.299706747996e+005 2.299706747996e+005 2.299706747996e+005 2.299706747996e+005 2.299706747996e+005 2.299706747996e+005 2.299706747996e+005 2.299706747996e+005 2.268671613838e+005 2.268671613838e+005 2.268671613838e+005 2.268671613838e+005 2.268671613838e+005 2.268671613838e+005 2.268671613838e+005 2.268671613838e+005 2.268671613838e+005 2.237406053369e+005 2.237406053369e+005 2.237406053369e+005 2.237406053369e+005 2.237406053369e+005 2.237406053369e+005 2.237406053369e+005 2.237406053369e+005 2.237406053369e+005 2.205883080353e+005 2.205883080353e+005 2.205883080353e+005 2.205883080353e+005 2.205883080353e+005 2.205883080353e+005 2.205883080353e+005 2.205883080353e+005 2.205883080353e+005 2.174073479798e+005 2.174073479798e+005 2.174073479798e+005 2.174073479798e+005 2.174073479798e+005 2.174073479798e+005 2.174073479798e+005 2.174073479798e+005 2.174073479798e+005 2.141945545414e+005 2.141945545414e+005 2.141945545414e+005 2.141945545414e+005 2.141945545414e+005 2.141945545414e+005 2.141945545414e+005 2.141945545414e+005 2.141945545414e+005 2.109464776221e+005 2.109464776221e+005 2.109464776221e+005 2.109464776221e+005 2.109464776221e+005 2.109464776221e+005 2.109464776221e+005 2.109464776221e+005 2.109464776221e+005 2.076593524474e+005 2.076593524474e+005 2.076593524474e+005 2.076593524474e+005 2.076593524474e+005 2.076593524474e+005 2.076593524474e+005 2.076593524474e+005 2.076593524474e+005 2.043290585185e+005 2.043290585185e+005 2.043290585185e+005 2.043290585185e+005 2.043290585185e+005 2.043290585185e+005 2.043290585185e+005 2.043290585185e+005 2.043290585185e+005 2.009510715210e+005 2.009510715210e+005 2.009510715210e+005 2.009510715210e+005 2.009510715210e+005 2.009510715210e+005 2.009510715210e+005 2.009510715210e+005 2.009510715210e+005 1.975204066817e+005 1.975204066817e+005 1.975204066817e+005 1.975204066817e+005 1.975204066817e+005 1.975204066817e+005 1.975204066817e+005 1.975204066817e+005 1.975204066817e+005 1.940315516776e+005 1.940315516776e+005 1.940315516775e+005 1.940315516775e+005 1.940315516775e+005 1.940315516775e+005 1.940315516775e+005 1.940315516775e+005 1.940315516775e+005 1.904783866868e+005 1.904783866868e+005 1.904783866868e+005 1.904783866868e+005 1.904783866868e+005 1.904783866868e+005 1.904783866868e+005 1.904783866868e+005 1.904783866868e+005 1.868540884996e+005 1.868540884996e+005 1.868540884996e+005 1.868540884996e+005 1.868540884995e+005 1.868540884995e+005 1.868540884995e+005 1.868540884995e+005 1.868540884995e+005 1.831510147061e+005 1.831510147061e+005 1.831510147061e+005 1.831510147061e+005 1.831510147061e+005 1.831510147060e+005 1.831510147060e+005 1.831510147060e+005 1.831510147060e+005 1.793605627695e+005 1.793605627695e+005 1.793605627695e+005 1.793605627695e+005 1.793605627695e+005 1.793605627695e+005 1.793605627695e+005 1.793605627695e+005 1.793605627695e+005 1.754729971370e+005 1.754729971370e+005 1.754729971370e+005 1.754729971369e+005 1.754729971369e+005 1.754729971369e+005 1.754729971369e+005 1.754729971369e+005 1.754729971369e+005 1.714772352635e+005 1.714772352635e+005 1.714772352635e+005 1.714772352634e+005 1.714772352634e+005 1.714772352634e+005 1.714772352633e+005 1.714772352633e+005 1.714772352633e+005 1.673605802354e+005 1.673605802354e+005 1.673605802354e+005 1.673605802354e+005 1.673605802353e+005 1.673605802353e+005 1.673605802353e+005 1.673605802352e+005 1.673605802352e+005 1.631083830803e+005 1.631083830803e+005 1.631083830803e+005 1.631083830802e+005 1.631083830802e+005 1.631083830801e+005 1.631083830801e+005 1.631083830801e+005 1.631083830800e+005 1.587036110132e+005 1.587036110132e+005 1.587036110132e+005 1.587036110131e+005 1.587036110131e+005 1.587036110130e+005 1.587036110130e+005 1.587036110129e+005 1.587036110129e+005 1.541262890330e+005 1.541262890330e+005 1.541262890330e+005 1.541262890329e+005 1.541262890328e+005 1.541262890327e+005 1.541262890327e+005 1.541262890326e+005 1.541262890326e+005 1.493527656196e+005 1.493527656196e+005 1.493527656196e+005 1.493527656196e+005 1.493527656195e+005 1.493527656194e+005 1.493527656193e+005 1.493527656193e+005 1.493527656193e+005 1.443547286959e+005 1.443547286959e+005 1.443547286958e+005 1.443547286958e+005 1.443547286956e+005 1.443547286955e+005 1.443547286955e+005 1.443547286954e+005 1.443547286954e+005 1.390978715544e+005 1.390978715543e+005 1.390978715540e+005 1.390978715536e+005 1.390978715532e+005 1.390978715528e+005 1.390978715525e+005 1.390978715523e+005 1.390978715522e+005 1.335400345585e+005 1.335400345585e+005 1.335400345583e+005 1.335400345581e+005 1.335400345577e+005 1.335400345571e+005 1.335400345566e+005 1.335400345564e+005 1.335400345564e+005 1.276285389720e+005 1.276285389716e+005 1.276285389708e+005 1.276285389695e+005 1.276285389681e+005 1.276285389669e+005 1.276285389662e+005 1.276285389654e+005 1.276285389649e+005 1.212963308619e+005 1.212963308608e+005 1.212963308572e+005 1.212963308523e+005 1.212963308476e+005 1.212963308433e+005 1.212963308396e+005 1.212963308370e+005 1.212963308363e+005 1.144562364144e+005 1.144562364159e+005 1.144562364189e+005 1.144562364224e+005 1.144562364247e+005 1.144562364244e+005 1.144562364229e+005 1.144562364246e+005 1.144562364262e+005 1.069918477904e+005 1.069918477895e+005 1.069918477943e+005 1.069918477996e+005 1.069918478046e+005 1.069918478121e+005 1.069918478237e+005 1.069918478245e+005 1.069918478215e+005 9.874150052422e+004 9.874150052907e+004 9.874150052176e+004 9.874150052084e+004 9.874150051813e+004 9.874150052109e+004 9.874150051195e+004 9.874150051317e+004 9.874150051502e+004 8.947520067990e+004 8.947520066863e+004 8.947520068178e+004 8.947520067069e+004 8.947520069262e+004 8.947520070630e+004 8.947520073935e+004 8.947520074530e+004 8.947520074969e+004 7.884364710008e+004 7.884364713303e+004 7.884364708887e+004 7.884364710863e+004 7.884364709444e+004 7.884364711946e+004 7.884364707121e+004 7.884364708569e+004 7.884364709276e+004 6.629070581325e+004 6.629070579692e+004 6.629070585029e+004 6.629070580637e+004 6.629070580504e+004 6.629070560149e+004 6.629070537423e+004 6.629070537550e+004 6.629070540537e+004 5.087857617121e+004 5.087857621877e+004 5.087857622925e+004 5.087857627205e+004 5.087857624664e+004 5.087857644684e+004 5.087857679771e+004 5.087857669822e+004 5.087857680702e+004 3.089472952023e+004 3.089472958557e+004 3.089472945816e+004 3.089472940409e+004 3.089472948408e+004 3.089472967153e+004 3.089472988007e+004 3.089472994571e+004 3.089472967693e+004 4.047253902101e+003 4.047253800182e+003 4.047253697460e+003 4.047253638063e+003 4.047253251424e+003 4.047253322685e+003 4.047252169267e+003 4.047252573957e+003 4.047252409037e+003 -2.626661859963e+004 -2.626661874248e+004 -2.626661887146e+004 -2.626661835459e+004 -2.626661864768e+004 -2.626661768985e+004 -2.626661890890e+004 -2.626661434162e+004 -2.626661937959e+004 -5.602977828021e+004 -5.602977449046e+004 -5.602977594430e+004 -5.602977752748e+004 -5.602977989467e+004 -5.602977646555e+004 -5.602977606481e+004 -5.602977560936e+004 -5.602977532145e+004 -8.517547745174e+004 -8.517548543053e+004 -8.517548355987e+004 -8.517548276921e+004 -8.517548495890e+004 -8.517548618229e+004 -8.517548285657e+004 -8.517548017958e+004 -8.517547889088e+004 -1.137153483910e+005 -1.137153512539e+005 -1.137153514583e+005 -1.137153476261e+005 -1.137153473795e+005 -1.137153478032e+005 -1.137153458698e+005 -1.137153474942e+005 -1.137153447339e+005 -1.416671217019e+005 -1.416671212717e+005 -1.416671205094e+005 -1.416671190573e+005 -1.416671190008e+005 -1.416671196721e+005 -1.416671170700e+005 -1.416671217194e+005 -1.416671185828e+005 -1.690451414881e+005 -1.690451423998e+005 -1.690451410942e+005 -1.690451382953e+005 -1.690451383878e+005 -1.690451401786e+005 -1.690451377084e+005 -1.690451390283e+005 -1.690451371294e+005 -1.958644203472e+005 -1.958644208706e+005 -1.958644193453e+005 -1.958644194325e+005 -1.958644181028e+005 -1.958644197753e+005 -1.958644189594e+005 -1.958644183456e+005 -1.958644205931e+005 -2.221397749946e+005 -2.221397764694e+005 -2.221397782189e+005 -2.221397784587e+005 -2.221397809415e+005 -2.221397775274e+005 -2.221397770816e+005 -2.221397784627e+005 -2.221397803221e+005 -2.478858745114e+005 -2.478858753129e+005 -2.478858792990e+005 -2.478858797665e+005 -2.478858788734e+005 -2.478858756121e+005 -2.478858773766e+005 -2.478858788520e+005 -2.478858800687e+005 -2.731172345765e+005 -2.731172380267e+005 -2.731172384178e+005 -2.731172380652e+005 -2.731172353653e+005 -2.731172364854e+005 -2.731172387036e+005 -2.731172362074e+005 -2.731172371223e+005 -2.978482338176e+005 -2.978482341964e+005 -2.978482342017e+005 -2.978482338735e+005 -2.978482331688e+005 -2.978482316351e+005 -2.978482343182e+005 -2.978482327783e+005 -2.978482325200e+005 -3.220931415950e+005 -3.220931386083e+005 -3.220931403784e+005 -3.220931395092e+005 -3.220931368386e+005 -3.220931382362e+005 -3.220931399745e+005 -3.220931394488e+005 -3.220931393265e+005 -3.458661262680e+005 -3.458661276037e+005 -3.458661277320e+005 -3.458661285258e+005 -3.458661250591e+005 -3.458661251570e+005 -3.458661285221e+005 -3.458661279710e+005 -3.458661264714e+005 -3.691812818534e+005 -3.691812829457e+005 -3.691812822943e+005 -3.691812811108e+005 -3.691812796317e+005 -3.691812806728e+005 -3.691812836022e+005 -3.691812832601e+005 -3.691812807886e+005 -3.920525910082e+005 -3.920525919951e+005 -3.920525918232e+005 -3.920525924610e+005 -3.920525895971e+005 -3.920525910674e+005 -3.920525932218e+005 -3.920525922628e+005 -3.920525906045e+005 -4.144939547747e+005 -4.144939557787e+005 -4.144939570958e+005 -4.144939544908e+005 -4.144939547589e+005 -4.144939558998e+005 -4.144939562544e+005 -4.144939572699e+005 -4.144939538621e+005 -4.365191745620e+005 -4.365191754656e+005 -4.365191750470e+005 -4.365191730918e+005 -4.365191751368e+005 -4.365191747097e+005 -4.365191738707e+005 -4.365191741480e+005 -4.365191735419e+005 -4.581419578773e+005 -4.581419571105e+005 -4.581419566928e+005 -4.581419563441e+005 -4.581419534732e+005 -4.581419536113e+005 -4.581419561440e+005 -4.581419548312e+005 -4.581419546032e+005 -4.793759108406e+005 -4.793759083615e+005 -4.793759081397e+005 -4.793759063465e+005 -4.793759046509e+005 -4.793759050412e+005 -4.793759074674e+005 -4.793759062638e+005 -4.793759072255e+005 -5.002345458742e+005 -5.002345451183e+005 -5.002345451122e+005 -5.002345442927e+005 -5.002345435267e+005 -5.002345434411e+005 -5.002345446684e+005 -5.002345450540e+005 -5.002345448085e+005 -5.207312891099e+005 -5.207312912983e+005 -5.207312918032e+005 -5.207312925215e+005 -5.207312911112e+005 -5.207312918778e+005 -5.207312931833e+005 -5.207312918955e+005 -5.207312911071e+005 -5.408794830178e+005 -5.408794809186e+005 -5.408794834953e+005 -5.408794836501e+005 -5.408794823625e+005 -5.408794847236e+005 -5.408794833171e+005 -5.408794835512e+005 -5.408794830127e+005 -5.606923686660e+005 -5.606923673035e+005 -5.606923671300e+005 -5.606923668819e+005 -5.606923665219e+005 -5.606923683670e+005 -5.606923680285e+005 -5.606923685465e+005 -5.606923666410e+005 -5.801831096283e+005 -5.801831129575e+005 -5.801831134122e+005 -5.801831132038e+005 -5.801831125821e+005 -5.801831141905e+005 -5.801831138844e+005 -5.801831140442e+005 -5.801831146368e+005 -5.993648089144e+005 -5.993648123348e+005 -5.993648114106e+005 -5.993648114445e+005 -5.993648144290e+005 -5.993648124903e+005 -5.993648138517e+005 -5.993648138819e+005 -5.993648141747e+005 -6.182504810131e+005 -6.182504825569e+005 -6.182504829929e+005 -6.182504819484e+005 -6.182504833053e+005 -6.182504837453e+005 -6.182504848900e+005 -6.182504834394e+005 -6.182504836751e+005 -6.368530717292e+005 -6.368530705977e+005 -6.368530707916e+005 -6.368530720971e+005 -6.368530707283e+005 -6.368530715532e+005 -6.368530716591e+005 -6.368530712154e+005 -6.368530707845e+005 -6.551854557574e+005 -6.551854569166e+005 -6.551854553264e+005 -6.551854559352e+005 -6.551854557556e+005 -6.551854565184e+005 -6.551854566007e+005 -6.551854555188e+005 -6.551854567499e+005 -6.732604543966e+005 -6.732604514705e+005 -6.732604508029e+005 -6.732604522776e+005 -6.732604513984e+005 -6.732604506456e+005 -6.732604512611e+005 -6.732604507249e+005 -6.732604521082e+005 -6.910908141679e+005 -6.910908111443e+005 -6.910908096675e+005 -6.910908110195e+005 -6.910908111578e+005 -6.910908114726e+005 -6.910908112959e+005 -6.910908117749e+005 -6.910908096975e+005 -7.086892318906e+005 -7.086892308390e+005 -7.086892295199e+005 -7.086892303811e+005 -7.086892309617e+005 -7.086892307888e+005 -7.086892309606e+005 -7.086892297153e+005 -7.086892297046e+005 -7.260683520910e+005 -7.260683501630e+005 -7.260683489764e+005 -7.260683493224e+005 -7.260683488489e+005 -7.260683473673e+005 -7.260683491312e+005 -7.260683485669e+005 -7.260683480371e+005 -7.432407588507e+005 -7.432407559871e+005 -7.432407553001e+005 -7.432407534597e+005 -7.432407535552e+005 -7.432407532898e+005 -7.432407535542e+005 -7.432407522316e+005 -7.432407515101e+005 -7.602189868877e+005 -7.602189859534e+005 -7.602189849204e+005 -7.602189835513e+005 -7.602189829518e+005 -7.602189820679e+005 -7.602189821753e+005 -7.602189807830e+005 -7.602189813059e+005 -7.770155311520e+005 -7.770155310011e+005 -7.770155288314e+005 -7.770155301273e+005 -7.770155278260e+005 -7.770155273945e+005 -7.770155271148e+005 -7.770155259730e+005 -7.770155248786e+005 -7.936428391304e+005 -7.936428381393e+005 -7.936428390739e+005 -7.936428367970e+005 -7.936428364725e+005 -7.936428353200e+005 -7.936428350925e+005 -7.936428348983e+005 -7.936428338247e+005 -8.101133160303e+005 -8.101133176084e+005 -8.101133169715e+005 -8.101133167920e+005 -8.101133153604e+005 -8.101133149305e+005 -8.101133140745e+005 -8.101133126797e+005 -8.101133120049e+005 -8.264393352551e+005 -8.264393371349e+005 -8.264393378655e+005 -8.264393364006e+005 -8.264393347903e+005 -8.264393348931e+005 -8.264393333216e+005 -8.264393319721e+005 -8.264393318152e+005 -8.426332295153e+005 -8.426332318520e+005 -8.426332317054e+005 -8.426332316715e+005 -8.426332306998e+005 -8.426332289254e+005 -8.426332277354e+005 -8.426332274402e+005 -8.426332267642e+005 -8.587073056944e+005 -8.587073037526e+005 -8.587073046148e+005 -8.587073045494e+005 -8.587073042347e+005 -8.587073016747e+005 -8.587073006517e+005 -8.587073014507e+005 -8.587073011204e+005 -8.746738313542e+005 -8.746738307879e+005 -8.746738305512e+005 -8.746738304548e+005 -8.746738294860e+005 -8.746738272494e+005 -8.746738278945e+005 -8.746738272632e+005 -8.746738275943e+005 -8.905450586008e+005 -8.905450578232e+005 -8.905450577750e+005 -8.905450563456e+005 -8.905450561938e+005 -8.905450551496e+005 -8.905450548715e+005 -8.905450542813e+005 -8.905450549898e+005 -9.063332107962e+005 -9.063332098954e+005 -9.063332102660e+005 -9.063332098987e+005 -9.063332087638e+005 -9.063332086447e+005 -9.063332080246e+005 -9.063332079548e+005 -9.063332067615e+005 -9.220504923591e+005 -9.220504930299e+005 -9.220504938053e+005 -9.220504933447e+005 -9.220504926086e+005 -9.220504929090e+005 -9.220504922596e+005 -9.220504922938e+005 -9.220504920205e+005 -9.377090943226e+005 -9.377090950934e+005 -9.377090956368e+005 -9.377090950521e+005 -9.377090950066e+005 -9.377090952287e+005 -9.377090944130e+005 -9.377090949443e+005 -9.377090950144e+005 -9.533211892043e+005 -9.533211893182e+005 -9.533211896618e+005 -9.533211897873e+005 -9.533211886443e+005 -9.533211884839e+005 -9.533211887883e+005 -9.533211890540e+005 -9.533211888966e+005 -9.688989361619e+005 -9.688989369842e+005 -9.688989376161e+005 -9.688989375434e+005 -9.688989372389e+005 -9.688989365605e+005 -9.688989365604e+005 -9.688989367306e+005 -9.688989368427e+005 -9.844544915951e+005 -9.844544920270e+005 -9.844544922789e+005 -9.844544921288e+005 -9.844544922220e+005 -9.844544917629e+005 -9.844544917625e+005 -9.844544919264e+005 -9.844544917685e+005 -1.000000000000e+006 -1.000000000000e+006 -1.000000000000e+006 -1.000000000000e+006 -1.000000000000e+006 -1.000000000000e+006 -1.000000000000e+006 -1.000000000000e+006 -1.000000000000e+006 
        </DataArray>
        <DataArray type="Float64" Name="NONWET_PRESSURE" format="ascii">