<?xml version="1.0"?>
<VTKFile type="UnstructuredGrid" version="0.1" byte_order="LittleEndian">
  <UnstructuredGrid>
    <Piece NumberOfPoints="909" NumberOfCells="800">
      <Points>
        <DataArray type="Float64" NumberOfComponents="3" format="ascii">
          0.000000000000e+000 0.000000000000e+000 0.000000000000e+000
          2.000000000000e+000 0.000000000000e+000 0.000000000000e+000
          2.000000000000e+000 2.500000000000e+000 0.000000000000e+000
          0.000000000000e+000 2.500000000000e+000 0.000000000000e+000
          2.000000000000e+000 5.000000000000e+000 0.000000000000e+000
          0.000000000000e+000 5.000000000000e+000 0.000000000000e+000
          2.000000000000e+000 7.500000000000e+000 0.000000000000e+000
          0.000000000000e+000 7.500000000000e+000 0.000000000000e+000
          2.000000000000e+000 1.000000000000e+001 0.000000000000e+000
          0.000000000000e+000 1.000000000000e+001 0.000000000000e+000
          2.000000000000e+000 1.250000000000e+001 0.000000000000e+000
          0.000000000000e+000 1.250000000000e+001 0.000000000000e+000
          2.000000000000e+000 1.500000000000e+001 0.000000000000e+000
          0.000000000000e+000 1.500000000000e+001 0.000000000000e+000
          2.000000000000e+000 1.750000000000e+001 0.000000000000e+000
          0.000000000000e+000 1.750000000000e+001 0.000000000000e+000
          2.000000000000e+000 2.000000000000e+001 0.000000000000e+000
          0.000000000000e+000 2.000000000000e+001 0.000000000000e+000
          4.000000000000e+000 0.000000000000e+000 0.000000000000e+000
          4.000000000000e+000 2.500000000000e+000 0.000000000000e+000
          4.000000000000e+000 5.000000000000e+000 0.000000000000e+000
          4.000000000000e+000 7.500000000000e+000 0.000000000000e+000
          4.000000000000e+000 1.000000000000e+001 0.000000000000e+000
          4.000000000000e+000 1.250000000000e+001 0.000000000000e+000
          4.000000000000e+000 1.500000000000e+001 0.000000000000e+000
          4.000000000000e+000 1.750000000000e+001 0.000000000000e+000
          4.000000000000e+000 2.000000000000e+001 0.000000000000e+000
          6.000000000000e+000 0.000000000000e+000 0.000000000000e+000
          6.000000000000e+000 2.500000000000e+000 0.000000000000e+000
          6.000000000000e+000 5.000000000000e+000 0.000000000000e+000
          6.000000000000e+000 7.500000000000e+000 0.000000000000e+000
          6.000000000000e+000 1.000000000000e+001 0.000000000000e+000
          6.000000000000e+000 1.250000000000e+001 0.000000000000e+000
          6.000000000000e+000 1.500000000000e+001 0.000000000000e+000
          6.000000000000e+000 1.750000000000e+001 0.000000000000e+000
          6.000000000000e+000 2.000000000000e+001 0.000000000000e+000
          8.000000000000e+000 0.000000000000e+000 0.000000000000e+000
          8.000000000000e+000 2.500000000000e+000 0.000000000000e+000
          8.000000000000e+000 5.000000000000e+000 0.000000000000e+000
          8.000000000000e+000 7.500000000000e+000 0.000000000000e+000
          8.000000000000e+000 1.000000000000e+001 0.000000000000e+000
          8.000000000000e+000 1.250000000000e+001 0.000000000000e+000
          8.000000000000e+000 1.500000000000e+001 0.000000000000e+000
          8.000000000000e+000 1.750000000000e+001 0.000000000000e+000
          8.000000000000e+000 2.000000000000e+001 0.000000000000e+000
          1.000000000000e+001 0.000000000000e+000 0.000000000000e+000
          1.000000000000e+001 2.500000000000e+000 0.000000000000e+000
          1.000000000000e+001 5.000000000000e+000 0.000000000000e+000
          1.000000000000e+001 7.500000000000e+000 0.000000000000e+000
          1.000000000000e+001 1.000000000000e+001 0.000000000000e+000
          1.000000000000e+001 1.250000000000e+001 0.000000000000e+000
          1.000000000000e+001 1.500000000000e+001 0.000000000000e+000
          1.000000000000e+001 1.750000000000e+001 0.000000000000e+000
          1.000000000000e+001 2.000000000000e+001 0.000000000000e+000
          1.200000000000e+001 0.000000000000e+000 0.000000000000e+000
          1.200000000000e+001 2.500000000000e+000 0.000000000000e+000
          1.200000000000e+001 5.000000000000e+000 0.000000000000e+000
          1.200000000000e+001 7.500000000000e+000 0.000000000000e+000
          1.200000000000e+001 1.000000000000e+001 0.000000000000e+000
          1.200000000000e+001 1.250000000000e+001 0.000000000000e+000
          1.200000000000e+001 1.500000000000e+001 0.000000000000e+000
          1.200000000000e+001 1.750000000000e+001 0.000000000000e+000
          1.200000000000e+001 2.000000000000e+001 0.000000000000e+000
          1.400000000000e+001 0.000000000000e+000 0.000000000000e+000
          1.400000000000e+001 2.500000000000e+000 0.000000000000e+000
          1.400000000000e+001 5.000000000000e+000 0.000000000000e+000
          1.400000000000e+001 7.500000000000e+000 0.000000000000e+000
          1.400000000000e+001 1.000000000000e+001 0.000000000000e+000
          1.400000000000e+001 1.250000000000e+001 0.000000000000e+000
          1.400000000000e+001 1.500000000000e+001 0.000000000000e+000
          1.400000000000e+001 1.750000000000e+001 0.000000000000e+000
          1.400000000000e+001 2.000000000000e+001 0.000000000000e+000
          1.600000000000e+001 0.000000000000e+000 0.000000000000e+000
          1.600000000000e+001 2.500000000000e+000 0.000000000000e+000
          1.600000000000e+001 5.000000000000e+000 0.000000000000e+000
          1.600000000000e+001 7.500000000000e+000 0.000000000000e+000
          1.600000000000e+001 1.000000000000e+001 0.000000000000e+000
          1.600000000000e+001 1.250000000000e+001 0.000000000000e+000
          1.600000000000e+001 1.500000000000e+001 0.000000000000e+000
          1.600000000000e+001 1.750000000000e+001 0.000000000000e+000
          1.600000000000e+001 2.000000000000e+001 0.000000000000e+000
          1.800000000000e+001 0.000000000000e+000 0.000000000000e+000
          1.800000000000e+001 2.500000000000e+000 0.000000000000e+000
          1.800000000000e+001 5.000000000000e+000 0.000000000000e+000
          1.800000000000e+001 7.500000000000e+000 0.000000000000e+000
          1.800000000000e+001 1.000000000000e+001 0.000000000000e+000
          1.800000000000e+001 1.250000000000e+001 0.000000000000e+000
          1.800000000000e+001 1.500000000000e+001 0.000000000000e+000
          1.800000000000e+001 1.750000000000e+001 0.000000000000e+000
          1.800000000000e+001 2.000000000000e+001 0.000000000000e+000
          2.000000000000e+001 0.000000000000e+000 0.000000000000e+000
          2.000000000000e+001 2.500000000000e+000 0.000000000000e+000
          2.000000000000e+001 5.000000000000e+000 0.000000000000e+000
          2.000000000000e+001 7.500000000000e+000 0.000000000000e+000
          2.000000000000e+001 1.000000000000e+001 0.000000000000e+000
          2.000000000000e+001 1.250000000000e+001 0.000000000000e+000
          2.000000000000e+001 1.500000000000e+001 0.000000000000e+000
          2.000000000000e+001 1.750000000000e+001 0.000000000000e+000
          2.000000000000e+001 2.000000000000e+001 0.000000000000e+000
          2.200000000000e+001 0.000000000000e+000 0.000000000000e+000
          2.200000000000e+001 2.500000000000e+000 0.000000000000e+000
          2.200000000000e+001 5.000000000000e+000 0.000000000000e+000
          2.200000000000e+001 7.500000000000e+000 0.000000000000e+000
          2.200000000000e+001 1.000000000000e+001 0.000000000000e+000
          2.200000000000e+001 1.250000000000e+001 0.000000000000e+000
          2.200000000000e+001 1.500000000000e+001 0.000000000000e+000
          2.200000000000e+001 1.750000000000e+001 0.000000000000e+000
          2.200000000000e+001 2.000000000000e+001 0.000000000000e+000
          2.400000000000e+001 0.000000000000e+000 0.000000000000e+000
          2.400000000000e+001 2.500000000000e+000 0.000000000000e+000
          2.400000000000e+001 5.000000000000e+000 0.000000000000e+000
          2.400000000000e+001 7.500000000000e+000 0.000000000000e+000
          2.400000000000e+001 1.000000000000e+001 0.000000000000e+000
          2.400000000000e+001 1.250000000000e+001 0.000000000000e+000
          2.400000000000e+001 1.500000000000e+001 0.000000000000e+000
          2.400000000000e+001 1.750000000000e+001 0.000000000000e+000
          2.400000000000e+001 2.000000000000e+001 0.000000000000e+000
          2.600000000000e+001 0.000000000000e+000 0.000000000000e+000
          2.600000000000e+001 2.500000000000e+000 0.000000000000e+000
          2.600000000000e+001 5.000000000000e+000 0.000000000000e+000
          2.600000000000e+001 7.500000000000e+000 0.000000000000e+000
          2.600000000000e+001 1.000000000000e+001 0.000000000000e+000
          2.600000000000e+001 1.250000000000e+001 0.000000000000e+000
          2.600000000000e+001 1.500000000000e+001 0.000000000000e+000
          2.600000000000e+001 1.750000000000e+001 0.000000000000e+000
          2.600000000000e+001 2.000000000000e+001 0.000000000000e+000
          2.800000000000e+001 0.000000000000e+000 0.000000000000e+000
          2.800000000000e+001 2.500000000000e+000 0.000000000000e+000
          2.800000000000e+001 5.000000000000e+000 0.000000000000e+000
          2.800000000000e+001 7.500000000000e+000 0.000000000000e+000
          2.800000000000e+001 1.000000000000e+001 0.000000000000e+000
          2.800000000000e+001 1.250000000000e+001 0.000000000000e+000
          2.800000000000e+001 1.500000000000e+001 0.000000000000e+000
          2.800000000000e+001 1.750000000000e+001 0.000000000000e+000
          2.800000000000e+001 2.000000000000e+001 0.000000000000e+000
          3.000000000000e+001 0.000000000000e+000 0.000000000000e+000
          3.000000000000e+001 2.500000000000e+000 0.000000000000e+000
          3.000000000000e+001 5.000000000000e+000 0.000000000000e+000
          3.000000000000e+001 7.500000000000e+000 0.000000000000e+000
[...]
      <PointData Scalars="CAPILLARY_PRESSURE">
        <DataArray type="Float64" Name="CAPILLARY_PRESSURE" format="ascii">
          2.379458111688e+005 2.340845777339e+005 2.340845777339e+005 2.379458111688e+005 2.340845777339e+005 2.379458111688e+005 2.340845777339e+005 2.379458111688e+005 2.340845777339e+005 2.379458111688e+005 2.340845777339e+005 2.379458111688e+005 2.340845777339e+005 2.379458111688e+005 2.340845777339e+005 2.379458111688e+005 2.340845777339e+005 2.379458111688e+005 2.301989908881e+005 2.301989908881e+005 2.301989908881e+005 2.301989908881e+005 2.301989908881e+005 2.301989908881e+005 2.301989908881e+005 2.301989908881e+005 2.301989908881e+005 2.262853493350e+005 2.262853493350e+005 2.262853493350e+005 2.262853493350e+005 2.262853493350e+005 2.262853493350e+005 2.262853493350e+005 2.262853493350e+005 2.262853493350e+005 2.223399564013e+005 2.223399564013e+005 2.223399564013e+005 2.223399564013e+005 2.223399564013e+005 2.223399564013e+005 2.223399564013e+005 2.223399564013e+005 2.223399564013e+005 2.183586832269e+005 2.183586832269e+005 2.183586832269e+005 2.183586832269e+005 2.183586832269e+005 2.183586832269e+005 2.183586832269e+005 2.183586832269e+005 2.183586832269e+005 2.143369708726e+005 2.143369708726e+005 2.143369708726e+005 2.143369708726e+005 2.143369708726e+005 2.143369708726e+005 2.143369708726e+005 2.143369708726e+005 2.143369708726e+005 2.102697804407e+005 2.102697804407e+005 2.102697804407e+005 2.102697804407e+005 2.102697804407e+005 2.102697804407e+005 2.102697804407e+005 2.102697804407e+005 2.102697804407e+005 2.061515263847e+005 2.061515263847e+005 2.061515263847e+005 2.061515263847e+005 2.061515263847e+005 2.061515263847e+005 2.061515263847e+005 2.061515263847e+005 2.061515263847e+005 2.019759909008e+005 2.019759909008e+005 2.019759909008e+005 2.019759909008e+005 2.019759909008e+005 2.019759909008e+005 2.019759909008e+005 2.019759909008e+005 2.019759909008e+005 1.977362225065e+005 1.977362225065e+005 1.977362225065e+005 1.977362225065e+005 1.977362225065e+005 1.977362225065e+005 1.977362225065e+005 1.977362225065e+005 1.977362225065e+005 1.934244141306e+005 1.934244141306e+005 1.934244141306e+005 1.934244141306e+005 1.934244141306e+005 1.934244141305e+005 1.934244141305e+005 1.934244141305e+005 1.934244141305e+005 1.890317550654e+005 1.890317550654e+005 1.890317550654e+005 1.890317550654e+005 1.890317550654e+005 1.890317550654e+005 1.890317550654e+005 1.890317550654e+005 1.890317550654e+005 1.845482483901e+005 1.845482483901e+005 1.845482483901e+005 1.845482483901e+005 1.845482483900e+005 1.845482483900e+005 1.845482483900e+005 1.845482483900e+005 1.845482483900e+005 1.799624838799e+005 1.799624838799e+005 1.799624838799e+005 1.799624838799e+005 1.799624838799e+005 1.799624838799e+005 1.799624838799e+005 1.799624838799e+005 1.799624838799e+005 1.752613529830e+005 1.752613529830e+005 1.752613529830e+005 1.752613529830e+005 1.752613529830e+005 1.752613529830e+005 1.752613529830e+005 1.752613529830e+005 1.752613529830e+005 1.704296873248e+005 1.704296873248e+005 1.704296873248e+005 1.704296873248e+005 1.704296873248e+005 1.704296873248e+005 1.704296873248e+005 1.704296873248e+005 1.704296873247e+005 1.654497949049e+005 1.654497949049e+005 1.654497949049e+005 1.654497949049e+005 1.654497949049e+005 1.654497949049e+005 1.654497949049e+005 1.654497949049e+005 1.654497949048e+005 1.603008571679e+005 1.603008571679e+005 1.603008571679e+005 1.603008571679e+005 1.603008571679e+005 1.603008571678e+005 1.603008571678e+005 1.603008571678e+005 1.603008571678e+005 1.549581335847e+005 1.549581335847e+005 1.549581335847e+005 1.549581335847e+005 1.549581335847e+005 1.549581335846e+005 1.549581335846e+005 1.549581335846e+005 1.549581335846e+005 1.493918937959e+005 1.493918937959e+005 1.493918937959e+005 1.493918937959e+005 1.493918937958e+005 1.493918937958e+005 1.493918937957e+005 1.493918937957e+005 1.493918937957e+005 1.435659563751e+005 1.435659563751e+005 1.435659563750e+005 1.435659563750e+005 1.435659563749e+005 1.435659563748e+005 1.435659563747e+005 1.435659563747e+005 1.435659563747e+005 1.374356442760e+005 1.374356442759e+005 1.374356442759e+005 1.374356442758e+005 1.374356442757e+005 1.374356442756e+005 1.374356442754e+005 1.374356442754e+005 1.374356442753e+005 1.309448480817e+005 1.309448480818e+005 1.309448480816e+005 1.309448480816e+005 1.309448480814e+005 1.309448480812e+005 1.309448480810e+005 1.309448480809e+005 1.309448480808e+005 1.240216911327e+005 1.240216911322e+005 1.240216911325e+005 1.240216911321e+005 1.240216911319e+005 1.240216911316e+005 1.240216911314e+005 1.240216911310e+005 1.240216911311e+005 1.165719194096e+005 1.165719194108e+005 1.165719194097e+005 1.165719194100e+005 1.165719194095e+005 1.165719194092e+005 1.165719194085e+005 1.165719194083e+005 1.165719194077e+005 1.084684858143e+005 1.084684858106e+005 1.084684858135e+005 1.084684858113e+005 1.084684858106e+005 1.084684858090e+005 1.084684858087e+005 1.084684858078e+005 1.084684858088e+005 9.953421493772e+004 9.953421494968e+004 9.953421493943e+004 9.953421494591e+004 9.953421494557e+004 9.953421494787e+004 9.953421494277e+004 9.953421494097e+004 9.953421493576e+004 8.951153057220e+004 8.951153053175e+004 8.951153056771e+004 8.951153054381e+004 8.951153054273e+004 8.951153052577e+004 8.951153053612e+004 8.951153053403e+004 8.951153054999e+004 7.800402353831e+004 7.800402367021e+004 7.800402355187e+004 7.800402362860e+004 7.800402361382e+004 7.800402365218e+004 7.800402360411e+004 7.800402360928e+004 7.800402354968e+004 6.436443514648e+004 6.436443479255e+004 6.436443517326e+004 6.436443496666e+004 6.436443504034e+004 6.436443490524e+004 6.436443492572e+004 6.436443477281e+004 6.436443491961e+004 4.745524289359e+004 4.745524367331e+004 4.745524276109e+004 4.745524331866e+004 4.745524305441e+004 4.745524322914e+004 4.745524320410e+004 4.745524363001e+004 4.745524316182e+004 2.519463162841e+004 2.519463084726e+004 2.519463295043e+004 2.519463196954e+004 2.519463267150e+004 2.519463247239e+004 2.519463120629e+004 2.519462906990e+004 2.519463011193e+004 -4.334338564652e+003 -4.334349396639e+003 -4.334349298222e+003 -4.334351012140e+003 -4.334350088112e+003 -4.334355940898e+003 -4.334344134671e+003 -4.334334181243e+003 -4.334339489662e+003 -3.553426173698e+004 -3.553426805715e+004 -3.553427015083e+004 -3.553427605761e+004 -3.553428011510e+004 -3.553426244271e+004 -3.553425722684e+004 -3.553425808095e+004 -3.553424698138e+004 -6.596937115185e+004 -6.596937511254e+004 -6.596936220521e+004 -6.596937579007e+004 -6.596937616823e+004 -6.596936817511e+004 -6.596935096554e+004 -6.596934945487e+004 -6.596935728145e+004 -9.563998513256e+004 -9.563996956519e+004 -9.563997402050e+004 -9.563997623191e+004 -9.563997959996e+004 -9.563996014227e+004 -9.563996224730e+004 -9.563995018058e+004 -9.563995433745e+004 -1.245569274636e+005 -1.245569326238e+005 -1.245569356314e+005 -1.245569421952e+005 -1.245569371259e+005 -1.245569225425e+005 -1.245569207652e+005 -1.245569165288e+005 -1.245569087981e+005 -1.527334930378e+005 -1.527334988668e+005 -1.527335008009e+005 -1.527335046029e+005 -1.527334999833e+005 -1.527334848554e+005 -1.527334795487e+005 -1.527334765144e+005 -1.527334728440e+005 -1.801838940628e+005 -1.801838876501e+005 -1.801838970272e+005 -1.801838946875e+005 -1.801838865028e+005 -1.801838773931e+005 -1.801838621157e+005 -1.801838687387e+005 -1.801838627958e+005 -2.069229976440e+005 -2.069229906356e+005 -2.069229992935e+005 -2.069229966724e+005 -2.069229888934e+005 -2.069229788887e+005 -2.069229722370e+005 -2.069229627653e+005 -2.069229660302e+005 -2.329659787970e+005 -2.329659799642e+005 -2.329659846096e+005 -2.329659817054e+005 -2.329659779916e+005 -2.329659609372e+005 -2.329659537336e+005 -2.329659551127e+005 -2.329659458451e+005 -2.583279858644e+005 -2.583279942606e+005 -2.583279881062e+005 -2.583279833376e+005 -2.583279811201e+005 -2.583279699118e+005 -2.583279589579e+005 -2.583279548273e+005 -2.583279525401e+005 -2.830239616537e+005 -2.830239462353e+005 -2.830239496281e+005 -2.830239400749e+005 -2.830239396287e+005 -2.830239325319e+005 -2.830239336602e+005 -2.830239126222e+005 -2.830239192154e+005 -3.070685490921e+005 -3.070685538773e+005 -3.070685484361e+005 -3.070685393883e+005 -3.070685372217e+005 -3.070685369664e+005 -3.070685258244e+005 -3.070685200414e+005 -3.070685165109e+005 -3.304762021458e+005 -3.304762063576e+005 -3.304762095037e+005 -3.304761947904e+005 -3.304761868512e+005 -3.304761874245e+005 -3.304761799481e+005 -3.304761761292e+005 -3.304761676420e+005 -3.532610826083e+005 -3.532610849473e+005 -3.532610815555e+005 -3.532610759468e+005 -3.532610683295e+005 -3.532610592346e+005 -3.532610534692e+005 -3.532610506109e+005 -3.532610524617e+005 -3.754371241861e+005 -3.754371180325e+005 -3.754371149685e+005 -3.754371064985e+005 -3.754371005813e+005 -3.754370900428e+005 -3.754370865163e+005 -3.754370807848e+005 -3.754370784373e+005 -3.970180230395e+005 -3.970180199688e+005 -3.970180133195e+005 -3.970180069189e+005 -3.970179958174e+005 -3.970179889223e+005 -3.970179874279e+005 -3.970179809207e+005 -3.970179775594e+005 -4.180173063077e+005 -4.180173043396e+005 -4.180172982952e+005 -4.180172895161e+005 -4.180172819167e+005 -4.180172764955e+005 -4.180172695024e+005 -4.180172665882e+005 -4.180172609419e+005 -4.384483120196e+005 -4.384483072577e+005 -4.384483046005e+005 -4.384482990383e+005 -4.384482926103e+005 -4.384482826524e+005 -4.384482758905e+005 -4.384482712141e+005 -4.384482715678e+005 -4.583242170147e+005 -4.583242147968e+005 -4.583242117178e+005 -4.583242070148e+005 -4.583241998501e+005 -4.583241894650e+005 -4.583241851292e+005 -4.583241793223e+005 -4.583241782528e+005 -4.776580512525e+005 -4.776580504027e+005 -4.776580479106e+005 -4.776580433734e+005 -4.776580381117e+005 -4.776580311927e+005 -4.776580273511e+005 -4.776580196033e+005 -4.776580234673e+005 -4.964627130116e+005 -4.964627085309e+005 -4.964627079811e+005 -4.964627064296e+005 -4.964627048787e+005 -4.964626973466e+005 -4.964626934490e+005 -4.964626906410e+005 -4.964626895358e+005 -5.147509713333e+005 -5.147509787894e+005 -5.147509754020e+005 -5.147509722700e+005 -5.147509715976e+005 -5.147509698821e+005 -5.147509640167e+005 -5.147509596421e+005 -5.147509577544e+005 -5.325355052742e+005 -5.325355077436e+005 -5.325355068159e+005 -5.325355012552e+005 -5.325354989214e+005 -5.325354972132e+005 -5.325354934518e+005 -5.325354938438e+005 -5.325354906505e+005 -5.498288469295e+005 -5.498288462076e+005 -5.498288446081e+005 -5.498288418866e+005 -5.498288403096e+005 -5.498288394394e+005 -5.498288355153e+005 -5.498288392766e+005 -5.498288358270e+005 -5.666434407626e+005 -5.666434414591e+005 -5.666434395376e+005 -5.666434358089e+005 -5.666434347934e+005 -5.666434354648e+005 -5.666434320382e+005 -5.666434327155e+005 -5.666434305904e+005 -5.829916300620e+005 -5.829916304273e+005 -5.829916284504e+005 -5.829916278577e+005 -5.829916257204e+005 -5.829916265797e+005 -5.829916250701e+005 -5.829916239909e+005 -5.829916260746e+005 -5.988856566069e+005 -5.988856579660e+005 -5.988856593849e+005 -5.988856591280e+005 -5.988856610221e+005 -5.988856570162e+005 -5.988856560666e+005 -5.988856571099e+005 -5.988856588506e+005 -6.143376753233e+005 -6.143376760401e+005 -6.143376797846e+005 -6.143376798895e+005 -6.143376785674e+005 -6.143376748754e+005 -6.143376762736e+005 -6.143376775038e+005 -6.143376786342e+005 -6.293597387449e+005 -6.293597421333e+005 -6.293597423480e+005 -6.293597417309e+005 -6.293597387184e+005 -6.293597395250e+005 -6.293597414769e+005 -6.293597388025e+005 -6.293597396547e+005 -6.439638059884e+005 -6.439638063219e+005 -6.439638061987e+005 -6.439638056778e+005 -6.439638047453e+005 -6.439638029835e+005 -6.439638054729e+005 -6.439638038034e+005 -6.439638034996e+005 -6.581617481457e+005 -6.581617451262e+005 -6.581617468026e+005 -6.581617457930e+005 -6.581617429565e+005 -6.581617441881e+005 -6.581617457856e+005 -6.581617451656e+005 -6.581617450102e+005 -6.719653453796e+005 -6.719653466915e+005 -6.719653467515e+005 -6.719653474430e+005 -6.719653438556e+005 -6.719653438327e+005 -6.719653470953e+005 -6.719653464757e+005 -6.719653449520e+005 -6.853863097793e+005 -6.853863108542e+005 -6.853863101530e+005 -6.853863088951e+005 -6.853863073281e+005 -6.853863082813e+005 -6.853863111361e+005 -6.853863107442e+005 -6.853863082551e+005 -6.984362506781e+005 -6.984362516522e+005 -6.984362514442e+005 -6.984362520278e+005 -6.984362491000e+005 -6.984362505063e+005 -6.984362526064e+005 -6.984362516111e+005 -6.984362499401e+005 -7.111267089890e+005 -7.111267099837e+005 -7.111267112744e+005 -7.111267086300e+005 -7.111267088515e+005 -7.111267099459e+005 -7.111267102610e+005 -7.111267112501e+005 -7.111267078330e+005 -7.234691436795e+005 -7.234691445764e+005 -7.234691441386e+005 -7.234691421547e+005 -7.234691441658e+005 -7.234691437048e+005 -7.234691428371e+005 -7.234691430952e+005 -7.234691424823e+005 -7.354749407107e+005 -7.354749399390e+005 -7.354749395073e+005 -7.354749391377e+005 -7.354749362422e+005 -7.354749363556e+005 -7.354749388674e+005 -7.354749375406e+005 -7.354749373077e+005 -7.471554072300e+005 -7.471554047473e+005 -7.471554045153e+005 -7.471554027069e+005 -7.471554009933e+005 -7.471554013657e+005 -7.471554037766e+005 -7.471554025629e+005 -7.471554035210e+005 -7.585217796342e+005 -7.585217788757e+005 -7.585217788622e+005 -7.585217780317e+005 -7.585217772526e+005 -7.585217771539e+005 -7.585217783701e+005 -7.585217787483e+005 -7.585217785002e+005 -7.695852304312e+005 -7.695852326177e+005 -7.695852331172e+005 -7.695852338274e+005 -7.695852324076e+005 -7.695852331647e+005 -7.695852344621e+005 -7.695852331689e+005 -7.695852323786e+005 -7.803568697745e+005 -7.803568676739e+005 -7.803568702468e+005 -7.803568703957e+005 -7.803568691012e+005 -7.803568714553e+005 -7.803568700429e+005 -7.803568702730e+005 -7.803568697332e+005 -7.908477263767e+005 -7.908477250132e+005 -7.908477248369e+005 -7.908477245844e+005 -7.908477242194e+005 -7.908477260595e+005 -7.908477257167e+005 -7.908477262318e+005 -7.908477243253e+005 -8.010687700133e+005 -8.010687733418e+005 -8.010687737944e+005 -8.010687735829e+005 -8.010687729576e+005 -8.010687745622e+005 -8.010687742531e+005 -8.010687744108e+005 -8.010687750027e+005 -8.110309271126e+005 -8.110309305324e+005 -8.110309296067e+005 -8.110309296383e+005 -8.110309326202e+005 -8.110309306788e+005 -8.110309320379e+005 -8.110309320666e+005 -8.110309323589e+005 -8.207450515750e+005 -8.207450531185e+005 -8.207450535534e+005 -8.207450525072e+005 -8.207450538621e+005 -8.207450543002e+005 -8.207450554433e+005 -8.207450539915e+005 -8.207450542269e+005 -8.302219435232e+005 -8.302219423915e+005 -8.302219425846e+005 -8.302219438889e+005 -8.302219425186e+005 -8.302219433421e+005 -8.302219434468e+005 -8.302219430023e+005 -8.302219425711e+005 -8.394723459142e+005 -8.394723470732e+005 -8.394723454824e+005 -8.394723460903e+005 -8.394723459096e+005 -8.394723466714e+005 -8.394723467528e+005 -8.394723456703e+005 -8.394723469012e+005 -8.485069613997e+005 -8.485069584734e+005 -8.485069578055e+005 -8.485069592795e+005 -8.485069583995e+005 -8.485069576459e+005 -8.485069582609e+005 -8.485069577242e+005 -8.485069591073e+005 -8.573364301762e+005 -8.573364271525e+005 -8.573364256754e+005 -8.573364270269e+005 -8.573364271647e+005 -8.573364274789e+005 -8.573364273017e+005 -8.573364277805e+005 -8.573364257029e+005 -8.659713543538e+005 -8.659713533022e+005 -8.659713519828e+005 -8.659713528437e+005 -8.659713534238e+005 -8.659713532505e+005 -8.659713534220e+005 -8.659713521765e+005 -8.659713521657e+005 -8.744222947039e+005 -8.744222927759e+005 -8.744222915891e+005 -8.744222919348e+005 -8.744222914611e+005 -8.744222899792e+005 -8.744222917429e+005 -8.744222911784e+005 -8.744222906485e+005 -8.826997618780e+005 -8.826997590144e+005 -8.826997583273e+005 -8.826997564868e+005 -8.826997565820e+005 -8.826997563164e+005 -8.826997565806e+005 -8.826997552579e+005 -8.826997545364e+005 -8.908142268819e+005 -8.908142259475e+005 -8.908142249145e+005 -8.908142235453e+005 -8.908142229456e+005 -8.908142220615e+005 -8.908142221688e+005 -8.908142207764e+005 -8.908142212992e+005 -8.987761300823e+005 -8.987761299314e+005 -8.987761277617e+005 -8.987761290575e+005 -8.987761267560e+005 -8.987761263244e+005 -8.987761260447e+005 -8.987761249028e+005 -8.987761238084e+005 -9.065958729394e+005 -9.065958719483e+005 -9.065958728829e+005 -9.065958706060e+005 -9.065958702813e+005 -9.065958691287e+005 -9.065958689012e+005 -9.065958687069e+005 -9.065958676333e+005 -9.142838226329e+005 -9.142838242110e+005 -9.142838235741e+005 -9.142838233946e+005 -9.142838219629e+005 -9.142838215330e+005 -9.142838206769e+005 -9.142838192821e+005 -9.142838186073e+005 -9.218503219967e+005 -9.218503238765e+005 -9.218503246071e+005 -9.218503231421e+005 -9.218503215318e+005 -9.218503216345e+005 -9.218503200630e+005 -9.218503187135e+005 -9.218503185566e+005 -9.293056801062e+005 -9.293056824428e+005 -9.293056822962e+005 -9.293056822623e+005 -9.293056812906e+005 -9.293056795162e+005 -9.293056783261e+005 -9.293056780309e+005 -9.293056773549e+005 -9.366601866397e+005 -9.366601846979e+005 -9.366601855601e+005 -9.366601854946e+005 -9.366601851799e+005 -9.366601826199e+005 -9.366601815968e+005 -9.366601823958e+005 -9.366601820655e+005 -9.439240978981e+005 -9.439240973318e+005 -9.439240970951e+005 -9.439240969987e+005 -9.439240960298e+005 -9.439240937933e+005 -9.439240944384e+005 -9.439240938070e+005 -9.439240941381e+005 -9.511076602052e+005 -9.511076594276e+005 -9.511076593794e+005 -9.511076579500e+005 -9.511076577982e+005 -9.511076567540e+005 -9.511076564758e+005 -9.511076558857e+005 -9.511076565941e+005 -9.582210961720e+005 -9.582210952712e+005 -9.582210956418e+005 -9.582210952745e+005 -9.582210941396e+005 -9.582210940205e+005 -9.582210934004e+005 -9.582210933306e+005 -9.582210921373e+005 -9.652746140704e+005 -9.652746147412e+005 -9.652746155166e+005 -9.652746150560e+005 -9.652746143198e+005 -9.652746146203e+005 -9.652746139708e+005 -9.652746140050e+005 -9.652746137318e+005 -9.722784129812e+005 -9.722784137519e+005 -9.722784142953e+005 -9.722784137106e+005 -9.722784136651e+005 -9.722784138872e+005 -9.722784130715e+005 -9.722784136028e+005 -9.722784136729e+005 -9.792426772769e+005 -9.792426773908e+005 -9.792426777344e+005 -9.792426778600e+005 -9.792426767169e+005 -9.792426765566e+005 -9.792426768609e+005 -9.792426771266e+005 -9.792426769692e+005 -9.861775814079e+005 -9.861775822302e+005 -9.861775828621e+005 -9.861775827894e+005 -9.861775824849e+005 -9.861775818064e+005 -9.861775818064e+005 -9.861775819766e+005 -9.861775820887e+005 -9.930933001944e+005 -9.930933006263e+005 -9.930933008781e+005 -9.930933007280e+005 -9.930933008212e+005 -9.930933003621e+005 -9.930933003618e+005 -9.930933005256e+005 -9.930933003677e+005 -1.000000000000e+006 -1.000000000000e+006 -1.000000000000e+006 -1.000000000000e+006 -1.000000000000e+006 -1.000000000000e+006 -1.000000000000e+006 -1.000000000000e+006 -1.000000000000e+006 
        </DataArray>
        <DataArray type="Float64" Name="NONWET_PRESSURE" format="ascii">