<?xml version="1.0"?>
<VTKFile type="UnstructuredGrid" version="0.1" byte_order="LittleEndian">
  <UnstructuredGrid>
    <Piece NumberOfPoints="909" NumberOfCells="800">
      <Points>
        <DataArray type="Float64" NumberOfComponents="3" format="ascii">
          0.000000000000e+000 0.000000000000e+000 0.000000000000e+000
          2.000000000000e+000 0.000000000000e+000 0.000000000000e+000
          2.000000000000e+000 2.500000000000e+000 0.000000000000e+000
          0.000000000000e+000 2.500000000000e+000 0.000000000000e+000
          2.000000000000e+000 5.000000000000e+000 0.000000000000e+000
          0.000000000000e+000 5.000000000000e+000 0.000000000000e+000
          2.000000000000e+000 7.500000000000e+000 0.000000000000e+000
          0.000000000000e+000 7.500000000000e+000 0.000000000000e+000
          2.000000000000e+000 1.000000000000e+001 0.000000000000e+000
          0.000000000000e+000 1.000000000000e+001 0.000000000000e+000
          2.000000000000e+000 1.250000000000e+001 0.000000000000e+000
          0.000000000000e+000 1.250000000000e+001 0.000000000000e+000
          2.000000000000e+000 1.500000000000e+001 0.000000000000e+000
          0.000000000000e+000 1.500000000000e+001 0.000000000000e+000
          2.000000000000e+000 1.750000000000e+001 0.000000000000e+000
          0.000000000000e+000 1.750000000000e+001 0.000000000000e+000
          2.000000000000e+000 2.000000000000e+001 0.000000000000e+000
          0.000000000000e+000 2.000000000000e+001 0.000000000000e+000
          4.000000000000e+000 0.000000000000e+000 0.000000000000e+000
          4.000000000000e+000 2.500000000000e+000 0.000000000000e+000
          4.000000000000e+000 5.000000000000e+000 0.000000000000e+000
          4.000000000000e+000 7.500000000000e+000 0.000000000000e+000
          4.000000000000e+000 1.000000000000e+001 0.000000000000e+000
          4.000000000000e+000 1.250000000000e+001 0.000000000000e+000
          4.000000000000e+000 1.500000000000e+001 0.000000000000e+000
          4.000000000000e+000 1.750000000000e+001 0.000000000000e+000
          4.000000000000e+000 2.000000000000e+001 0.000000000000e+000
          6.000000000000e+000 0.000000000000e+000 0.000000000000e+000
          6.000000000000e+000 2.500000000000e+000 0.000000000000e+000
          6.000000000000e+000 5.000000000000e+000 0.000000000000e+000
          6.000000000000e+000 7.500000000000e+000 0.000000000000e+000
          6.000000000000e+000 1.000000000000e+001 0.000000000000e+000
          6.000000000000e+000 1.250000000000e+001 0.000000000000e+000
          6.000000000000e+000 1.500000000000e+001 0.000000000000e+000
          6.000000000000e+000 1.750000000000e+001 0.000000000000e+000
          6.000000000000e+000 2.000000000000e+001 0.000000000000e+000
          8.000000000000e+000 0.000000000000e+000 0.000000000000e+000
          8.000000000000e+000 2.500000000000e+000 0.000000000000e+000
          8.000000000000e+000 5.000000000000e+000 0.000000000000e+000
          8.000000000000e+000 7.500000000000e+000 0.000000000000e+000
          8.000000000000e+000 1.000000000000e+001 0.000000000000e+000
          8.000000000000e+000 1.250000000000e+001 0.000000000000e+000
          8.000000000000e+000 1.500000000000e+001 0.000000000000e+000
          8.000000000000e+000 1.750000000000e+001 0.000000000000e+000
          8.000000000000e+000 2.000000000000e+001 0.000000000000e+000
          1.000000000000e+001 0.000000000000e+000 0.000000000000e+000
          1.000000000000e+001 2.500000000000e+000 0.000000000000e+000
          1.000000000000e+001 5.000000000000e+000 0.000000000000e+000
          1.000000000000e+001 7.500000000000e+000 0.000000000000e+000
          1.000000000000e+001 1.000000000000e+001 0.000000000000e+000
          1.000000000000e+001 1.250000000000e+001 0.000000000000e+000
          1.000000000000e+001 1.500000000000e+001 0.000000000000e+000
          1.000000000000e+001 1.750000000000e+001 0.000000000000e+000
          1.000000000000e+001 2.000000000000e+001 0.000000000000e+000
          1.200000000000e+001 0.000000000000e+000 0.000000000000e+000
          1.200000000000e+001 2.500000000000e+000 0.000000000000e+000
          1.200000000000e+001 5.000000000000e+000 0.000000000000e+000
          1.200000000000e+001 7.500000000000e+000 0.000000000000e+000
          1.200000000000e+001 1.000000000000e+001 0.000000000000e+000
          1.200000000000e+001 1.250000000000e+001 0.000000000000e+000
          1.200000000000e+001 1.500000000000e+001 0.000000000000e+000
          1.200000000000e+001 1.750000000000e+001 0.000000000000e+000
          1.200000000000e+001 2.000000000000e+001 0.000000000000e+000
          1.400000000000e+001 0.000000000000e+000 0.000000000000e+000
          1.400000000000e+001 2.500000000000e+000 0.000000000000e+000
          1.400000000000e+001 5.000000000000e+000 0.000000000000e+000
          1.400000000000e+001 7.500000000000e+000 0.000000000000e+000
          1.400000000000e+001 1.000000000000e+001 0.000000000000e+000
          1.400000000000e+001 1.250000000000e+001 0.000000000000e+000
          1.400000000000e+001 1.500000000000e+001 0.000000000000e+000
          1.400000000000e+001 1.750000000000e+001 0.000000000000e+000
          1.400000000000e+001 2.000000000000e+001 0.000000000000e+000
          1.600000000000e+001 0.000000000000e+000 0.000000000000e+000
          1.600000000000e+001 2.500000000000e+000 0.000000000000e+000
          1.600000000000e+001 5.000000000000e+000 0.000000000000e+000
          1.600000000000e+001 7.500000000000e+000 0.000000000000e+000
          1.600000000000e+001 1.000000000000e+001 0.000000000000e+000
          1.600000000000e+001 1.250000000000e+001 0.000000000000e+000
          1.600000000000e+001 1.500000000000e+001 0.000000000000e+000
          1.600000000000e+001 1.750000000000e+001 0.000000000000e+000
          1.600000000000e+001 2.000000000000e+001 0.000000000000e+000
          1.800000000000e+001 0.000000000000e+000 0.000000000000e+000
          1.800000000000e+001 2.500000000000e+000 0.000000000000e+000
          1.800000000000e+001 5.000000000000e+000 0.000000000000e+000
          1.800000000000e+001 7.500000000000e+000 0.000000000000e+000
          1.800000000000e+001 1.000000000000e+001 0.000000000000e+000
          1.800000000000e+001 1.250000000000e+001 0.000000000000e+000
          1.800000000000e+001 1.500000000000e+001 0.000000000000e+000
          1.800000000000e+001 1.750000000000e+001 0.000000000000e+000
          1.800000000000e+001 2.000000000000e+001 0.000000000000e+000
          2.000000000000e+001 0.000000000000e+000 0.000000000000e+000
          2.000000000000e+001 2.500000000000e+000 0.000000000000e+000
          2.000000000000e+001 5.000000000000e+000 0.000000000000e+000
          2.000000000000e+001 7.500000000000e+000 0.000000000000e+000
          2.000000000000e+001 1.000000000000e+001 0.000000000000e+000
          2.000000000000e+001 1.250000000000e+001 0.000000000000e+000
          2.000000000000e+001 1.500000000000e+001 0.000000000000e+000
          2.000000000000e+001 1.750000000000e+001 0.000000000000e+000
          2.000000000000e+001 2.000000000000e+001 0.000000000000e+000
          2.200000000000e+001 0.000000000000e+000 0.000000000000e+000
          2.200000000000e+001 2.500000000000e+000 0.000000000000e+000
          2.200000000000e+001 5.000000000000e+000 0.000000000000e+000
          2.200000000000e+001 7.500000000000e+000 0.000000000000e+000
          2.200000000000e+001 1.000000000000e+001 0.000000000000e+000
          2.200000000000e+001 1.250000000000e+001 0.000000000000e+000
          2.200000000000e+001 1.500000000000e+001 0.000000000000e+000
          2.200000000000e+001 1.750000000000e+001 0.000000000000e+000
          2.200000000000e+001 2.000000000000e+001 0.000000000000e+000
          2.400000000000e+001 0.000000000000e+000 0.000000000000e+000
          2.400000000000e+001 2.500000000000e+000 0.000000000000e+000
          2.400000000000e+001 5.000000000000e+000 0.000000000000e+000
          2.400000000000e+001 7.500000000000e+000 0.000000000000e+000
          2.400000000000e+001 1.000000000000e+001 0.000000000000e+000
          2.400000000000e+001 1.250000000000e+001 0.000000000000e+000
          2.400000000000e+001 1.500000000000e+001 0.000000000000e+000
          2.400000000000e+001 1.750000000000e+001 0.000000000000e+000
          2.400000000000e+001 2.000000000000e+001 0.000000000000e+000
          2.600000000000e+001 0.000000000000e+000 0.000000000000e+000
          2.600000000000e+001 2.500000000000e+000 0.000000000000e+000
          2.600000000000e+001 5.000000000000e+000 0.000000000000e+000
          2.600000000000e+001 7.500000000000e+000 0.000000000000e+000
          2.600000000000e+001 1.000000000000e+001 0.000000000000e+000
          2.600000000000e+001 1.250000000000e+001 0.000000000000e+000
          2.600000000000e+001 1.500000000000e+001 0.000000000000e+000
          2.600000000000e+001 1.750000000000e+001 0.000000000000e+000
          2.600000000000e+001 2.000000000000e+001 0.000000000000e+000
          2.800000000000e+001 0.000000000000e+000 0.000000000000e+000
          2.800000000000e+001 2.500000000000e+000 0.000000000000e+000
          2.800000000000e+001 5.000000000000e+000 0.000000000000e+000
          2.800000000000e+001 7.500000000000e+000 0.000000000000e+000
          2.800000000000e+001 1.000000000000e+001 0.000000000000e+000
          2.800000000000e+001 1.250000000000e+001 0.000000000000e+000
          2.800000000000e+001 1.500000000000e+001 0.000000000000e+000
          2.800000000000e+001 1.750000000000e+001 0.000000000000e+000
          2.800000000000e+001 2.000000000000e+001 0.000000000000e+000
          3.000000000000e+001 0.000000000000e+000 0.000000000000e+000
          3.000000000000e+001 2.500000000000e+000 0.000000000000e+000
          3.000000000000e+001 5.000000000000e+000 0.000000000000e+000
          3.000000000000e+001 7.500000000000e+000 0.000000000000e+000
[...]
      <PointData Scalars="CAPILLARY_PRESSURE">
        <DataArray type="Float64" Name="CAPILLARY_PRESSURE" format="ascii">
          1.373264204113e+005 1.272791862525e+005 1.272791862528e+005 1.373264204112e+005 1.272791862531e+005 1.373264204111e+005 1.272791862531e+005 1.373264204112e+005 1.272791862531e+005 1.373264204112e+005 1.272791862529e+005 1.373264204114e+005 1.272791862531e+005 1.373264204113e+005 1.272791862527e+005 1.373264204115e+005 1.272791862538e+005 1.373264204111e+005 1.163073172394e+005 1.163073172384e+005 1.163073172366e+005 1.163073172369e+005 1.163073172368e+005 1.163073172384e+005 1.163073172380e+005 1.163073172395e+005 1.163073172351e+005 1.040846091207e+005 1.040846091240e+005 1.040846091323e+005 1.040846091309e+005 1.040846091317e+005 1.040846091256e+005 1.040846091279e+005 1.040846091222e+005 1.040846091406e+005 9.010286322469e+004 9.010286321695e+004 9.010286318800e+004 9.010286319813e+004 9.010286319708e+004 9.010286322104e+004 9.010286321155e+004 9.010286323384e+004 9.010286316485e+004 7.348753937304e+004 7.348753936031e+004 7.348753943783e+004 7.348753941036e+004 7.348753943992e+004 7.348753938558e+004 7.348753943037e+004 7.348753933084e+004 7.348753953652e+004 5.258965005884e+004 5.258965028936e+004 5.258965013413e+004 5.258965016679e+004 5.258965002341e+004 5.258965011244e+004 5.258964994344e+004 5.258965031249e+004 5.258964987057e+004 2.376381537931e+004 2.376381400980e+004 2.376381427279e+004 2.376381443913e+004 2.376381495410e+004 2.376381498446e+004 2.376381550346e+004 2.376381442934e+004 2.376381484674e+004 -1.548543352052e+004 -1.548541523966e+004 -1.548541690277e+004 -1.548542121312e+004 -1.548542293912e+004 -1.548542738019e+004 -1.548542757822e+004 -1.548542599668e+004 -1.548541445277e+004 -5.584635195870e+004 -5.584634906786e+004 -5.584633966899e+004 -5.584633812141e+004 -5.584636272130e+004 -5.584635110467e+004 -5.584634860402e+004 -5.584634043232e+004 -5.584633827249e+004 -9.508643538658e+004 -9.508642710049e+004 -9.508643407909e+004 -9.508643599606e+004 -9.508643149504e+004 -9.508643184753e+004 -9.508642136809e+004 -9.508642670830e+004 -9.508642105594e+004 -1.331802065005e+005 -1.331801981955e+005 -1.331801952922e+005 -1.331802009947e+005 -1.331801986541e+005 -1.331801945819e+005 -1.331802005154e+005 -1.331801904359e+005 -1.331801758246e+005 -1.701399619640e+005 -1.701399662452e+005 -1.701399599913e+005 -1.701399499711e+005 -1.701399483621e+005 -1.701399472168e+005 -1.701399449495e+005 -1.701399455553e+005 -1.701399396240e+005 -2.059850830054e+005 -2.059850830266e+005 -2.059850732042e+005 -2.059850722767e+005 -2.059850697476e+005 -2.059850591093e+005 -2.059850619047e+005 -2.059850624373e+005 -2.059850590946e+005 -2.407353004115e+005 -2.407352915182e+005 -2.407352969430e+005 -2.407352911956e+005 -2.407352942124e+005 -2.407352929021e+005 -2.407352865032e+005 -2.407352844060e+005 -2.407352840451e+005 -2.744094569942e+005 -2.744094553822e+005 -2.744094670730e+005 -2.744094605391e+005 -2.744094551819e+005 -2.744094611141e+005 -2.744094592469e+005 -2.744094515067e+005 -2.744094467418e+005 -3.070254535067e+005 -3.070254521377e+005 -3.070254709979e+005 -3.070254689122e+005 -3.070254631658e+005 -3.070254578718e+005 -3.070254629795e+005 -3.070254455997e+005 -3.070254448261e+005 -3.386004016253e+005 -3.386003988559e+005 -3.386004145452e+005 -3.386004202702e+005 -3.386004181887e+005 -3.386004122410e+005 -3.386004122347e+005 -3.386004026508e+005 -3.386003928702e+005 -3.691508909613e+005 -3.691508930381e+005 -3.691509024064e+005 -3.691509095156e+005 -3.691509142879e+005 -3.691509032863e+005 -3.691508903146e+005 -3.691508882263e+005 -3.691508945673e+005 -3.986932744255e+005 -3.986932793369e+005 -3.986932823895e+005 -3.986932801861e+005 -3.986932788071e+005 -3.986932732352e+005 -3.986932653193e+005 -3.986932586747e+005 -3.986932727075e+005 -4.272438347541e+005 -4.272438418207e+005 -4.272438393837e+005 -4.272438396326e+005 -4.272438394602e+005 -4.272438266131e+005 -4.272438244419e+005 -4.272438200637e+005 -4.272438236580e+005 -4.548190251239e+005 -4.548190217453e+005 -4.548190237535e+005 -4.548190169283e+005 -4.548190110995e+005 -4.548189948624e+005 -4.548190040404e+005 -4.548189979687e+005 -4.548189990121e+005 -4.814354845039e+005 -4.814354851261e+005 -4.814354767636e+005 -4.814354681824e+005 -4.814354594908e+005 -4.814354535867e+005 -4.814354491283e+005 -4.814354471214e+005 -4.814354466901e+005 -5.071101937622e+005 -5.071101662197e+005 -5.071101685501e+005 -5.071101570585e+005 -5.071101431061e+005 -5.071101415084e+005 -5.071101342977e+005 -5.071101228257e+005 -5.071101316353e+005 -5.318603907527e+005 -5.318603824547e+005 -5.318603680613e+005 -5.318603622004e+005 -5.318603502231e+005 -5.318603463796e+005 -5.318603457905e+005 -5.318603380053e+005 -5.318603472254e+005 -5.557037519756e+005 -5.557037361792e+005 -5.557037295476e+005 -5.557037223422e+005 -5.557037072887e+005 -5.557037032130e+005 -5.557036985588e+005 -5.557037073810e+005 -5.557037111513e+005 -5.786581756660e+005 -5.786581795453e+005 -5.786581758630e+005 -5.786581634117e+005 -5.786581538182e+005 -5.786581454234e+005 -5.786581449792e+005 -5.786581550892e+005 -5.786581610748e+005 -6.007419619751e+005 -6.007419522973e+005 -6.007419435532e+005 -6.007419302708e+005 -6.007419262726e+005 -6.007419298866e+005 -6.007419264758e+005 -6.007419231723e+005 -6.007419194914e+005 -6.219735617102e+005 -6.219735568191e+005 -6.219735418813e+005 -6.219735392060e+005 -6.219735336092e+005 -6.219735345412e+005 -6.219735287650e+005 -6.219735306748e+005 -6.219735266339e+005 -6.423717325646e+005 -6.423717290221e+005 -6.423717235021e+005 -6.423717240103e+005 -6.423717144638e+005 -6.423717214720e+005 -6.423717126065e+005 -6.423717105400e+005 -6.423717117555e+005 -6.619554294189e+005 -6.619554444168e+005 -6.619554322868e+005 -6.619554334892e+005 -6.619554355345e+005 -6.619554299772e+005 -6.619554260391e+005 -6.619554218579e+005 -6.619554265455e+005 -6.807437959036e+005 -6.807438066687e+005 -6.807438103955e+005 -6.807438113622e+005 -6.807438214967e+005 -6.807438060756e+005 -6.807438023790e+005 -6.807437930626e+005 -6.807437961128e+005 -6.987561058464e+005 -6.987561210571e+005 -6.987561133489e+005 -6.987561251617e+005 -6.987561299986e+005 -6.987561328365e+005 -6.987561221402e+005 -6.987561152376e+005 -6.987561072869e+005 -7.160117672054e+005 -7.160117780305e+005 -7.160117810738e+005 -7.160117857118e+005 -7.160117882527e+005 -7.160117934227e+005 -7.160117780019e+005 -7.160117630746e+005 -7.160117663249e+005 -7.325302650457e+005 -7.325302720532e+005 -7.325302755808e+005 -7.325302835069e+005 -7.325302888976e+005 -7.325302710056e+005 -7.325302637692e+005 -7.325302622790e+005 -7.325302501169e+005 -7.483311588216e+005 -7.483311631011e+005 -7.483311511080e+005 -7.483311657397e+005 -7.483311667949e+005 -7.483311586204e+005 -7.483311404479e+005 -7.483311378023e+005 -7.483311451410e+005 -7.634340373211e+005 -7.634340219558e+005 -7.634340269087e+005 -7.634340296976e+005 -7.634340334094e+005 -7.634340138673e+005 -7.634340155033e+005 -7.634340029007e+005 -7.634340068217e+005 -7.778584646084e+005 -7.778584698774e+005 -7.778584731658e+005 -7.778584800421e+005 -7.778584751614e+005 -7.778584605441e+005 -7.778584585461e+005 -7.778584540545e+005 -7.778584462135e+005 -7.916240561796e+005 -7.916240620707e+005 -7.916240641599e+005 -7.916240681360e+005 -7.916240636241e+005 -7.916240484899e+005 -7.916240430813e+005 -7.916240399270e+005 -7.916240362041e+005 -8.047503145005e+005 -8.047503081223e+005 -8.047503175867e+005 -8.047503153454e+005 -8.047503072251e+005 -8.047502981208e+005 -8.047502827994e+005 -8.047502893671e+005 -8.047502833997e+005 -8.172566524570e+005 -8.172566454683e+005 -8.172566541757e+005 -8.172566516116e+005 -8.172566438727e+005 -8.172566338775e+005 -8.172566272091e+005 -8.172566177132e+005 -8.172566209671e+005 -8.291624052775e+005 -8.291624064559e+005 -8.291624111301e+005 -8.291624082598e+005 -8.291624045717e+005 -8.291623875272e+005 -8.291623803194e+005 -8.291623816890e+005 -8.291623724168e+005 -8.404867719370e+005 -8.404867803398e+005 -8.404867742026e+005 -8.404867694546e+005 -8.404867672541e+005 -8.404867560546e+005 -8.404867451017e+005 -8.404867409684e+005 -8.404867386795e+005 -8.512487918748e+005 -8.512487764603e+005 -8.512487798635e+005 -8.512487703233e+005 -8.512487698886e+005 -8.512487627991e+005 -8.512487639302e+005 -8.512487428923e+005 -8.512487494852e+005 -8.614672837357e+005 -8.614672885233e+005 -8.614672830886e+005 -8.614672740492e+005 -8.614672718905e+005 -8.614672716409e+005 -8.614672605021e+005 -8.614672547203e+005 -8.614672511900e+005 -8.711609331754e+005 -8.711609373887e+005 -8.711609405390e+005 -8.711609258312e+005 -8.711609178975e+005 -8.711609184753e+005 -8.711609110018e+005 -8.711609071842e+005 -8.711608986975e+005 -8.803481568932e+005 -8.803481592331e+005 -8.803481558440e+005 -8.803481502390e+005 -8.803481426257e+005 -8.803481335341e+005 -8.803481277711e+005 -8.803481249141e+005 -8.803481267654e+005 -8.890471308491e+005 -8.890471246961e+005 -8.890471216340e+005 -8.890471131664e+005 -8.890471072520e+005 -8.890470967160e+005 -8.890470931913e+005 -8.890470874610e+005 -8.890470851139e+005 -8.972757433233e+005 -8.972757402531e+005 -8.972757336050e+005 -8.972757272062e+005 -8.972757161067e+005 -8.972757092134e+005 -8.972757077204e+005 -8.972757012142e+005 -8.972756978532e+005 -9.050516263409e+005 -9.050516243730e+005 -9.050516183295e+005 -9.050516095516e+005 -9.050516019536e+005 -9.050515965338e+005 -9.050515895419e+005 -9.050515866284e+005 -9.050515809823e+005 -9.123921001344e+005 -9.123920953727e+005 -9.123920927161e+005 -9.123920871548e+005 -9.123920807279e+005 -9.123920707709e+005 -9.123920640099e+005 -9.123920593340e+005 -9.123920596878e+005 -9.193141681879e+005 -9.193141659702e+005 -9.193141628916e+005 -9.193141581892e+005 -9.193141510253e+005 -9.193141406409e+005 -9.193141363058e+005 -9.193141304992e+005 -9.193141294298e+005 -9.258345019725e+005 -9.258345011229e+005 -9.258344986311e+005 -9.258344940943e+005 -9.258344888332e+005 -9.258344819147e+005 -9.258344780736e+005 -9.258344703261e+005 -9.258344741901e+005 -9.319694303614e+005 -9.319694258807e+005 -9.319694253313e+005 -9.319694237801e+005 -9.319694222296e+005 -9.319694146979e+005 -9.319694108006e+005 -9.319694079927e+005 -9.319694068877e+005 -9.377349201967e+005 -9.377349276528e+005 -9.377349242657e+005 -9.377349211339e+005 -9.377349204618e+005 -9.377349187465e+005 -9.377349128813e+005 -9.377349085069e+005 -9.377349066192e+005 -9.431465973455e+005 -9.431465998150e+005 -9.431465988874e+005 -9.431465933269e+005 -9.431465909933e+005 -9.431465892854e+005 -9.431465855240e+005 -9.431465859162e+005 -9.431465827229e+005 -9.482196747584e+005 -9.482196740365e+005 -9.482196724371e+005 -9.482196697158e+005 -9.482196681390e+005 -9.482196672689e+005 -9.482196633449e+005 -9.482196671062e+005 -9.482196636567e+005 -9.529689995464e+005 -9.529690002429e+005 -9.529689983215e+005 -9.529689945930e+005 -9.529689935775e+005 -9.529689942490e+005 -9.529689908225e+005 -9.529689914999e+005 -9.529689893747e+005 -9.574090294187e+005 -9.574090297840e+005 -9.574090278071e+005 -9.574090272145e+005 -9.574090250773e+005 -9.574090259366e+005 -9.574090244270e+005 -9.574090233479e+005 -9.574090254316e+005 -9.615538241739e+005 -9.615538255329e+005 -9.615538269519e+005 -9.615538266950e+005 -9.615538285892e+005 -9.615538245833e+005 -9.615538236338e+005 -9.615538246772e+005 -9.615538264178e+005 -9.654170537467e+005 -9.654170544635e+005 -9.654170582080e+005 -9.654170583130e+005 -9.654170569909e+005 -9.654170532989e+005 -9.654170546972e+005 -9.654170559274e+005 -9.654170570578e+005 -9.690119774289e+005 -9.690119808173e+005 -9.690119810320e+005 -9.690119804150e+005 -9.690119774026e+005 -9.690119782092e+005 -9.690119801610e+005 -9.690119774866e+005 -9.690119783389e+005 -9.723514488477e+005 -9.723514491813e+005 -9.723514490580e+005 -9.723514485372e+005 -9.723514476048e+005 -9.723514458430e+005 -9.723514483324e+005 -9.723514466629e+005 -9.723514463591e+005 -9.754479185171e+005 -9.754479154976e+005 -9.754479171739e+005 -9.754479161644e+005 -9.754479133280e+005 -9.754479145595e+005 -9.754479161570e+005 -9.754479155371e+005 -9.754479153816e+005 -9.783134291840e+005 -9.783134304958e+005 -9.783134305558e+005 -9.783134312475e+005 -9.783134276600e+005 -9.783134276371e+005 -9.783134308998e+005 -9.783134302802e+005 -9.783134287564e+005 -9.809596379757e+005 -9.809596390506e+005 -9.809596383495e+005 -9.809596370916e+005 -9.809596355247e+005 -9.809596364778e+005 -9.809596393326e+005 -9.809596389407e+005 -9.809596364516e+005 -9.833977819998e+005 -9.833977829740e+005 -9.833977827659e+005 -9.833977833495e+005 -9.833977804217e+005 -9.833977818280e+005 -9.833977839281e+005 -9.833977829329e+005 -9.833977812618e+005 -9.856387139061e+005 -9.856387149009e+005 -9.856387161916e+005 -9.856387135472e+005 -9.856387137688e+005 -9.856387148631e+005 -9.856387151782e+005 -9.856387161673e+005 -9.856387127503e+005 -9.876928904846e+005 -9.876928913814e+005 -9.876928909437e+005 -9.876928889597e+005 -9.876928909709e+005 -9.876928905098e+005 -9.876928896421e+005 -9.876928899003e+005 -9.876928892874e+005 -9.895703845727e+005 -9.895703838010e+005 -9.895703833694e+005 -9.895703829998e+005 -9.895703801041e+005 -9.895703802176e+005 -9.895703827294e+005 -9.895703814026e+005 -9.895703811697e+005 -9.912808830157e+005 -9.912808805330e+005 -9.912808803010e+005 -9.912808784925e+005 -9.912808767790e+005 -9.912808771513e+005 -9.912808795623e+005 -9.912808783486e+005 -9.912808793067e+005 -9.928336992427e+005 -9.928336984843e+005 -9.928336984708e+005 -9.928336976402e+005 -9.928336968612e+005 -9.928336967625e+005 -9.928336979787e+005 -9.928336983569e+005 -9.928336981088e+005 -9.942377853409e+005 -9.942377875274e+005 -9.942377880269e+005 -9.942377887371e+005 -9.942377873173e+005 -9.942377880744e+005 -9.942377893718e+005 -9.942377880786e+005 -9.942377872882e+005 -9.955017394498e+005 -9.955017373493e+005 -9.955017399221e+005 -9.955017400710e+005 -9.955017387764e+005 -9.955017411306e+005 -9.955017397181e+005 -9.955017399483e+005 -9.955017394085e+005 -9.966337931363e+005 -9.966337917728e+005 -9.966337915965e+005 -9.966337913440e+005 -9.966337909790e+005 -9.966337928190e+005 -9.966337924762e+005 -9.966337929913e+005 -9.966337910848e+005 -9.976418409120e+005 -9.976418442406e+005 -9.976418446931e+005 -9.976418444815e+005 -9.976418438562e+005 -9.976418454609e+005 -9.976418451517e+005 -9.976418453094e+005 -9.976418459013e+005 -9.985334633436e+005 -9.985334667635e+005 -9.985334658378e+005 -9.985334658694e+005 -9.985334688512e+005 -9.985334669098e+005 -9.985334682689e+005 -9.985334682977e+005 -9.985334685899e+005 -9.993159058554e+005 -9.993159073989e+005 -9.993159078338e+005 -9.993159067877e+005 -9.993159081425e+005 -9.993159085806e+005 -9.993159097237e+005 -9.993159082719e+005 -9.993159085074e+005 -9.999961058802e+005 -9.999961047485e+005 -9.999961049416e+005 -9.999961062459e+005 -9.999961048757e+005 -9.999961056992e+005 -9.999961058039e+005 -9.999961053594e+005 -9.999961049282e+005 -1.000580698251e+006 -1.000580699410e+006 -1.000580697819e+006 -1.000580698427e+006 -1.000580698246e+006 -1.000580699008e+006 -1.000580699089e+006 -1.000580698007e+006 -1.000580699238e+006 -1.001076041177e+006 -1.001076038251e+006 -1.001076037583e+006 -1.001076039057e+006 -1.001076038177e+006 -1.001076037424e+006 -1.001076038039e+006 -1.001076037502e+006 -1.001076038885e+006 -1.001488203516e+006 -1.001488200492e+006 -1.001488199015e+006 -1.001488200366e+006 -1.001488200504e+006 -1.001488200818e+006 -1.001488200641e+006 -1.001488201120e+006 -1.001488199042e+006 -1.001822998820e+006 -1.001822997768e+006 -1.001822996448e+006 -1.001822997309e+006 -1.001822997890e+006 -1.001822997716e+006 -1.001822997888e+006 -1.001822996642e+006 -1.001822996632e+006 -1.002085992006e+006 -1.002085990078e+006 -1.002085988891e+006 -1.002085989237e+006 -1.002085988763e+006 -1.002085987281e+006 -1.002085989045e+006 -1.002085988481e+006 -1.002085987951e+006 -1.002282500694e+006 -1.002282497830e+006 -1.002282497143e+006 -1.002282495303e+006 -1.002282495398e+006 -1.002282495132e+006 -1.002282495397e+006 -1.002282494074e+006 -1.002282493352e+006 -1.002417615972e+006 -1.002417615037e+006 -1.002417614004e+006 -1.002417612635e+006 -1.002417612035e+006 -1.002417611151e+006 -1.002417611259e+006 -1.002417609866e+006 -1.002417610389e+006 -1.002496221851e+006 -1.002496221700e+006 -1.002496219530e+006 -1.002496220826e+006 -1.002496218524e+006 -1.002496218093e+006 -1.002496217813e+006 -1.002496216671e+006 -1.002496215577e+006 -1.002522997565e+006 -1.002522996574e+006 -1.002522997509e+006 -1.002522995232e+006 -1.002522994907e+006 -1.002522993755e+006 -1.002522993527e+006 -1.002522993333e+006 -1.002522992259e+006 -1.002502432878e+006 -1.002502434456e+006 -1.002502433819e+006 -1.002502433640e+006 -1.002502432208e+006 -1.002502431778e+006 -1.002502430922e+006 -1.002502429527e+006 -1.002502428853e+006 -1.002438848779e+006 -1.002438850659e+006 -1.002438851389e+006 -1.002438849924e+006 -1.002438848314e+006 -1.002438848417e+006 -1.002438846845e+006 -1.002438845496e+006 -1.002438845339e+006 -1.002336398906e+006 -1.002336401243e+006 -1.002336401096e+006 -1.002336401062e+006 -1.002336400091e+006 -1.002336398316e+006 -1.002336397126e+006 -1.002336396831e+006 -1.002336396155e+006 -1.002199094805e+006 -1.002199092864e+006 -1.002199093726e+006 -1.002199093660e+006 -1.002199093346e+006 -1.002199090786e+006 -1.002199089763e+006 -1.002199090562e+006 -1.002199090231e+006 -1.002030802889e+006 -1.002030802322e+006 -1.002030802086e+006 -1.002030801989e+006 -1.002030801020e+006 -1.002030798784e+006 -1.002030799429e+006 -1.002030798798e+006 -1.002030799129e+006 -1.001835278813e+006 -1.001835278035e+006 -1.001835277987e+006 -1.001835276558e+006 -1.001835276406e+006 -1.001835275362e+006 -1.001835275084e+006 -1.001835274494e+006 -1.001835275202e+006 -1.001616164754e+006 -1.001616163853e+006 -1.001616164224e+006 -1.001616163857e+006 -1.001616162722e+006 -1.001616162603e+006 -1.001616161982e+006 -1.001616161913e+006 -1.001616160719e+006 -1.001377009810e+006 -1.001377010481e+006 -1.001377011256e+006 -1.001377010796e+006 -1.001377010060e+006 -1.001377010360e+006 -1.001377009711e+006 -1.001377009745e+006 -1.001377009472e+006 -1.001121286206e+006 -1.001121286976e+006 -1.001121287520e+006 -1.001121286935e+006 -1.001121286890e+006 -1.001121287112e+006 -1.001121286296e+006 -1.001121286828e+006 -1.001121286898e+006 -1.000852394837e+006 -1.000852394951e+006 -1.000852395294e+006 -1.000852395420e+006 -1.000852394277e+006 -1.000852394117e+006 -1.000852394421e+006 -1.000852394687e+006 -1.000852394529e+006 -1.000573681123e+006 -1.000573681945e+006 -1.000573682577e+006 -1.000573682504e+006 -1.000573682200e+006 -1.000573681521e+006 -1.000573681521e+006 -1.000573681692e+006 -1.000573681804e+006 -1.000288456357e+006 -1.000288456789e+006 -1.000288457041e+006 -1.000288456891e+006 -1.000288456984e+006 -1.000288456525e+006 -1.000288456525e+006 -1.000288456689e+006 -1.000288456531e+006 -1.000000000000e+006 -1.000000000000e+006 -1.000000000000e+006 -1.000000000000e+006 -1.000000000000e+006 -1.000000000000e+006 -1.000000000000e+006 -1.000000000000e+006 -1.000000000000e+006 
        </DataArray>
        <DataArray type="Float64" Name="NONWET_PRESSURE" format="ascii">