<?xml version="1.0"?>
<VTKFile type="UnstructuredGrid" version="0.1" byte_order="LittleEndian">
  <UnstructuredGrid>
    <Piece NumberOfPoints="909" NumberOfCells="800">
      <Points>
        <DataArray type="Float64" NumberOfComponents="3" format="ascii">
          0.000000000000e+000 0.000000000000e+000 0.000000000000e+000
          2.000000000000e+000 0.000000000000e+000 0.000000000000e+000
          2.000000000000e+000 2.500000000000e+000 0.000000000000e+000
          0.000000000000e+000 2.500000000000e+000 0.000000000000e+000
          2.000000000000e+000 5.000000000000e+000 0.000000000000e+000
          0.000000000000e+000 5.000000000000e+000 0.000000000000e+000
          2.000000000000e+000 7.500000000000e+000 0.000000000000e+000
          0.000000000000e+000 7.500000000000e+000 0.000000000000e+000
          2.000000000000e+000 1.000000000000e+001 0.000000000000e+000
          0.000000000000e+000 1.000000000000e+001 0.000000000000e+000
          2.000000000000e+000 1.250000000000e+001 0.000000000000e+000
          0.000000000000e+000 1.250000000000e+001 0.000000000000e+000
          2.000000000000e+000 1.500000000000e+001 0.000000000000e+000
          0.000000000000e+000 1.500000000000e+001 0.000000000000e+000
          2.000000000000e+000 1.750000000000e+001 0.000000000000e+000
          0.000000000000e+000 1.750000000000e+001 0.000000000000e+000
          2.000000000000e+000 2.000000000000e+001 0.000000000000e+000
          0.000000000000e+000 2.000000000000e+001 0.000000000000e+000
          4.000000000000e+000 0.000000000000e+000 0.000000000000e+000
          4.000000000000e+000 2.500000000000e+000 0.000000000000e+000
          4.000000000000e+000 5.000000000000e+000 0.000000000000e+000
          4.000000000000e+000 7.500000000000e+000 0.000000000000e+000
          4.000000000000e+000 1.000000000000e+001 0.000000000000e+000
          4.000000000000e+000 1.250000000000e+001 0.000000000000e+000
          4.000000000000e+000 1.500000000000e+001 0.000000000000e+000
          4.000000000000e+000 1.750000000000e+001 0.000000000000e+000
          4.000000000000e+000 2.000000000000e+001 0.000000000000e+000
          6.000000000000e+000 0.000000000000e+000 0.000000000000e+000
          6.000000000000e+000 2.500000000000e+000 0.000000000000e+000
          6.000000000000e+000 5.000000000000e+000 0.000000000000e+000
          6.000000000000e+000 7.500000000000e+000 0.000000000000e+000
          6.000000000000e+000 1.000000000000e+001 0.000000000000e+000
          6.000000000000e+000 1.250000000000e+001 0.000000000000e+000
          6.000000000000e+000 1.500000000000e+001 0.000000000000e+000
          6.000000000000e+000 1.750000000000e+001 0.000000000000e+000
          6.000000000000e+000 2.000000000000e+001 0.000000000000e+000
          8.000000000000e+000 0.000000000000e+000 0.000000000000e+000
          8.000000000000e+000 2.500000000000e+000 0.000000000000e+000
          8.000000000000e+000 5.000000000000e+000 0.000000000000e+000
          8.000000000000e+000 7.500000000000e+000 0.000000000000e+000
          8.000000000000e+000 1.000000000000e+001 0.000000000000e+000
          8.000000000000e+000 1.250000000000e+001 0.000000000000e+000
          8.000000000000e+000 1.500000000000e+001 0.000000000000e+000
          8.000000000000e+000 1.750000000000e+001 0.000000000000e+000
          8.000000000000e+000 2.000000000000e+001 0.000000000000e+000
          1.000000000000e+001 0.000000000000e+000 0.000000000000e+000
          1.000000000000e+001 2.500000000000e+000 0.000000000000e+000
          1.000000000000e+001 5.000000000000e+000 0.000000000000e+000
          1.000000000000e+001 7.500000000000e+000 0.000000000000e+000
          1.000000000000e+001 1.000000000000e+001 0.000000000000e+000
          1.000000000000e+001 1.250000000000e+001 0.000000000000e+000
          1.000000000000e+001 1.500000000000e+001 0.000000000000e+000
          1.000000000000e+001 1.750000000000e+001 0.000000000000e+000
          1.000000000000e+001 2.000000000000e+001 0.000000000000e+000
          1.200000000000e+001 0.000000000000e+000 0.000000000000e+000
          1.200000000000e+001 2.500000000000e+000 0.000000000000e+000
          1.200000000000e+001 5.000000000000e+000 0.000000000000e+000
          1.200000000000e+001 7.500000000000e+000 0.000000000000e+000
          1.200000000000e+001 1.000000000000e+001 0.000000000000e+000
          1.200000000000e+001 1.250000000000e+001 0.000000000000e+000
          1.200000000000e+001 1.500000000000e+001 0.000000000000e+000
          1.200000000000e+001 1.750000000000e+001 0.000000000000e+000
          1.200000000000e+001 2.000000000000e+001 0.000000000000e+000
          1.400000000000e+001 0.000000000000e+000 0.000000000000e+000
          1.400000000000e+001 2.500000000000e+000 0.000000000000e+000
          1.400000000000e+001 5.000000000000e+000 0.000000000000e+000
          1.400000000000e+001 7.500000000000e+000 0.000000000000e+000
          1.400000000000e+001 1.000000000000e+001 0.000000000000e+000
          1.400000000000e+001 1.250000000000e+001 0.000000000000e+000
          1.400000000000e+001 1.500000000000e+001 0.000000000000e+000
          1.400000000000e+001 1.750000000000e+001 0.000000000000e+000
          1.400000000000e+001 2.000000000000e+001 0.000000000000e+000
          1.600000000000e+001 0.000000000000e+000 0.000000000000e+000
          1.600000000000e+001 2.500000000000e+000 0.000000000000e+000
          1.600000000000e+001 5.000000000000e+000 0.000000000000e+000
          1.600000000000e+001 7.500000000000e+000 0.000000000000e+000
          1.600000000000e+001 1.000000000000e+001 0.000000000000e+000
          1.600000000000e+001 1.250000000000e+001 0.000000000000e+000
          1.600000000000e+001 1.500000000000e+001 0.000000000000e+000
          1.600000000000e+001 1.750000000000e+001 0.000000000000e+000
          1.600000000000e+001 2.000000000000e+001 0.000000000000e+000
          1.800000000000e+001 0.000000000000e+000 0.000000000000e+000
          1.800000000000e+001 2.500000000000e+000 0.000000000000e+000
          1.800000000000e+001 5.000000000000e+000 0.000000000000e+000
          1.800000000000e+001 7.500000000000e+000 0.000000000000e+000
          1.800000000000e+001 1.000000000000e+001 0.000000000000e+000
          1.800000000000e+001 1.250000000000e+001 0.000000000000e+000
          1.800000000000e+001 1.500000000000e+001 0.000000000000e+000
          1.800000000000e+001 1.750000000000e+001 0.000000000000e+000
          1.800000000000e+001 2.000000000000e+001 0.000000000000e+000
          2.000000000000e+001 0.000000000000e+000 0.000000000000e+000
          2.000000000000e+001 2.500000000000e+000 0.000000000000e+000
          2.000000000000e+001 5.000000000000e+000 0.000000000000e+000
          2.000000000000e+001 7.500000000000e+000 0.000000000000e+000
          2.000000000000e+001 1.000000000000e+001 0.000000000000e+000
          2.000000000000e+001 1.250000000000e+001 0.000000000000e+000
          2.000000000000e+001 1.500000000000e+001 0.000000000000e+000
          2.000000000000e+001 1.750000000000e+001 0.000000000000e+000
          2.000000000000e+001 2.000000000000e+001 0.000000000000e+000
          2.200000000000e+001 0.000000000000e+000 0.000000000000e+000
          2.200000000000e+001 2.500000000000e+000 0.000000000000e+000
          2.200000000000e+001 5.000000000000e+000 0.000000000000e+000
          2.200000000000e+001 7.500000000000e+000 0.000000000000e+000
          2.200000000000e+001 1.000000000000e+001 0.000000000000e+000
          2.200000000000e+001 1.250000000000e+001 0.000000000000e+000
          2.200000000000e+001 1.500000000000e+001 0.000000000000e+000
          2.200000000000e+001 1.750000000000e+001 0.000000000000e+000
          2.200000000000e+001 2.000000000000e+001 0.000000000000e+000
          2.400000000000e+001 0.000000000000e+000 0.000000000000e+000
          2.400000000000e+001 2.500000000000e+000 0.000000000000e+000
          2.400000000000e+001 5.000000000000e+000 0.000000000000e+000
          2.400000000000e+001 7.500000000000e+000 0.000000000000e+000
          2.400000000000e+001 1.000000000000e+001 0.000000000000e+000
          2.400000000000e+001 1.250000000000e+001 0.000000000000e+000
          2.400000000000e+001 1.500000000000e+001 0.000000000000e+000
          2.400000000000e+001 1.750000000000e+001 0.000000000000e+000
          2.400000000000e+001 2.000000000000e+001 0.000000000000e+000
          2.600000000000e+001 0.000000000000e+000 0.000000000000e+000
          2.600000000000e+001 2.500000000000e+000 0.000000000000e+000
          2.600000000000e+001 5.000000000000e+000 0.000000000000e+000
          2.600000000000e+001 7.500000000000e+000 0.000000000000e+000
          2.600000000000e+001 1.000000000000e+001 0.000000000000e+000
          2.600000000000e+001 1.250000000000e+001 0.000000000000e+000
          2.600000000000e+001 1.500000000000e+001 0.000000000000e+000
          2.600000000000e+001 1.750000000000e+001 0.000000000000e+000
          2.600000000000e+001 2.000000000000e+001 0.000000000000e+000
          2.800000000000e+001 0.000000000000e+000 0.000000000000e+000
          2.800000000000e+001 2.500000000000e+000 0.000000000000e+000
          2.800000000000e+001 5.000000000000e+000 0.000000000000e+000
          2.800000000000e+001 7.500000000000e+000 0.000000000000e+000
          2.800000000000e+001 1.000000000000e+001 0.000000000000e+000
          2.800000000000e+001 1.250000000000e+001 0.000000000000e+000
          2.800000000000e+001 1.500000000000e+001 0.000000000000e+000
          2.800000000000e+001 1.750000000000e+001 0.000000000000e+000
          2.800000000000e+001 2.000000000000e+001 0.000000000000e+000
          3.000000000000e+001 0.000000000000e+000 0.000000000000e+000
          3.000000000000e+001 2.500000000000e+000 0.000000000000e+000
          3.000000000000e+001 5.000000000000e+000 0.000000000000e+000
          3.000000000000e+001 7.500000000000e+000 0.000000000000e+000
[...]
      <PointData Scalars="CAPILLARY_PRESSURE">
        <DataArray type="Float64" Name="CAPILLARY_PRESSURE" format="ascii">
          3.040231697141e+005 3.015010913981e+005 3.015010913981e+005 3.040231697141e+005 3.015010913981e+005 3.040231697141e+005 3.015010913981e+005 3.040231697141e+005 3.015010913981e+005 3.040231697141e+005 3.015010913981e+005 3.040231697141e+005 3.015010913981e+005 3.040231697141e+005 3.015010913981e+005 3.040231697141e+005 3.015010913981e+005 3.040231697141e+005 2.989865625780e+005 2.989865625780e+005 2.989865625780e+005 2.989865625780e+005 2.989865625780e+005 2.989865625780e+005 2.989865625780e+005 2.989865625780e+005 2.989865625780e+005 2.964787635462e+005 2.964787635462e+005 2.964787635462e+005 2.964787635462e+005 2.964787635462e+005 2.964787635462e+005 2.964787635462e+005 2.964787635462e+005 2.964787635462e+005 2.939770176264e+005 2.939770176264e+005 2.939770176264e+005 2.939770176264e+005 2.939770176264e+005 2.939770176264e+005 2.939770176264e+005 2.939770176264e+005 2.939770176264e+005 2.914807403053e+005 2.914807403053e+005 2.914807403053e+005 2.914807403053e+005 2.914807403053e+005 2.914807403053e+005 2.914807403053e+005 2.914807403053e+005 2.914807403053e+005 2.889893269104e+005 2.889893269104e+005 2.889893269104e+005 2.889893269104e+005 2.889893269104e+005 2.889893269104e+005 2.889893269104e+005 2.889893269104e+005 2.889893269104e+005 2.865021402094e+005 2.865021402094e+005 2.865021402094e+005 2.865021402094e+005 2.865021402094e+005 2.865021402094e+005 2.865021402094e+005 2.865021402094e+005 2.865021402094e+005 2.840185114373e+005 2.840185114373e+005 2.840185114373e+005 2.840185114373e+005 2.840185114373e+005 2.840185114373e+005 2.840185114373e+005 2.840185114373e+005 2.840185114373e+005 2.815377387576e+005 2.815377387576e+005 2.815377387576e+005 2.815377387576e+005 2.815377387576e+005 2.815377387576e+005 2.815377387576e+005 2.815377387576e+005 2.815377387576e+005 2.790590868669e+005 2.790590868669e+005 2.790590868669e+005 2.790590868669e+005 2.790590868669e+005 2.790590868669e+005 2.790590868669e+005 2.790590868669e+005 2.790590868669e+005 2.765817860067e+005 2.765817860067e+005 2.765817860067e+005 2.765817860067e+005 2.765817860067e+005 2.765817860067e+005 2.765817860067e+005 2.765817860067e+005 2.765817860067e+005 2.741050303082e+005 2.741050303082e+005 2.741050303082e+005 2.741050303082e+005 2.741050303082e+005 2.741050303082e+005 2.741050303082e+005 2.741050303082e+005 2.741050303082e+005 2.716279754898e+005 2.716279754898e+005 2.716279754898e+005 2.716279754898e+005 2.716279754898e+005 2.716279754898e+005 2.716279754898e+005 2.716279754898e+005 2.716279754898e+005 2.691497360238e+005 2.691497360238e+005 2.691497360238e+005 2.691497360238e+005 2.691497360238e+005 2.691497360238e+005 2.691497360238e+005 2.691497360238e+005 2.691497360238e+005 2.666693819419e+005 2.666693819419e+005 2.666693819419e+005 2.666693819419e+005 2.666693819419e+005 2.666693819419e+005 2.666693819419e+005 2.666693819419e+005 2.666693819419e+005 2.641859353889e+005 2.641859353889e+005 2.641859353889e+005 2.641859353889e+005 2.641859353889e+005 2.641859353889e+005 2.641859353889e+005 2.641859353889e+005 2.641859353889e+005 2.616983669412e+005 2.616983669412e+005 2.616983669412e+005 2.616983669412e+005 2.616983669412e+005 2.616983669412e+005 2.616983669412e+005 2.616983669412e+005 2.616983669412e+005 2.592055916442e+005 2.592055916442e+005 2.592055916442e+005 2.592055916442e+005 2.592055916442e+005 2.592055916442e+005 2.592055916442e+005 2.592055916442e+005 2.592055916442e+005 2.567064646993e+005 2.567064646993e+005 2.567064646993e+005 2.567064646993e+005 2.567064646993e+005 2.567064646993e+005 2.567064646993e+005 2.567064646993e+005 2.567064646993e+005 2.541997767272e+005 2.541997767272e+005 2.541997767272e+005 2.541997767272e+005 2.541997767272e+005 2.541997767272e+005 2.541997767272e+005 2.541997767272e+005 2.541997767272e+005 2.516842485356e+005 2.516842485356e+005 2.516842485356e+005 2.516842485356e+005 2.516842485356e+005 2.516842485356e+005 2.516842485356e+005 2.516842485356e+005 2.516842485356e+005 2.491585253164e+005 2.491585253164e+005 2.491585253164e+005 2.491585253164e+005 2.491585253164e+005 2.491585253164e+005 2.491585253164e+005 2.491585253164e+005 2.491585253164e+005 2.466211701973e+005 2.466211701973e+005 2.466211701973e+005 2.466211701973e+005 2.466211701973e+005 2.466211701973e+005 2.466211701973e+005 2.466211701973e+005 2.466211701973e+005 2.440706570591e+005 2.440706570591e+005 2.440706570591e+005 2.440706570591e+005 2.440706570591e+005 2.440706570591e+005 2.440706570591e+005 2.440706570591e+005 2.440706570591e+005 2.415053625212e+005 2.415053625212e+005 2.415053625212e+005 2.415053625212e+005 2.415053625212e+005 2.415053625212e+005 2.415053625212e+005 2.415053625212e+005 2.415053625212e+005 2.389235569810e+005 2.389235569810e+005 2.389235569810e+005 2.389235569810e+005 2.389235569810e+005 2.389235569810e+005 2.389235569810e+005 2.389235569810e+005 2.389235569810e+005 2.363233945715e+005 2.363233945715e+005 2.363233945715e+005 2.363233945715e+005 2.363233945715e+005 2.363233945715e+005 2.363233945715e+005 2.363233945715e+005 2.363233945715e+005 2.337029018814e+005 2.337029018814e+005 2.337029018814e+005 2.337029018814e+005 2.337029018814e+005 2.337029018814e+005 2.337029018814e+005 2.337029018814e+005 2.337029018814e+005 2.310599652490e+005 2.310599652490e+005 2.310599652490e+005 2.310599652490e+005 2.310599652490e+005 2.310599652490e+005 2.310599652490e+005 2.310599652490e+005 2.310599652490e+005 2.283923164120e+005 2.283923164120e+005 2.283923164120e+005 2.283923164120e+005 2.283923164120e+005 2.283923164120e+005 2.283923164120e+005 2.283923164120e+005 2.283923164120e+005 2.256975162482e+005 2.256975162482e+005 2.256975162482e+005 2.256975162482e+005 2.256975162482e+005 2.256975162482e+005 2.256975162482e+005 2.256975162482e+005 2.256975162482e+005 2.229729362953e+005 2.229729362953e+005 2.229729362953e+005 2.229729362953e+005 2.229729362953e+005 2.229729362953e+005 2.229729362953e+005 2.229729362953e+005 2.229729362953e+005 2.202157376735e+005 2.202157376735e+005 2.202157376735e+005 2.202157376735e+005 2.202157376735e+005 2.202157376735e+005 2.202157376735e+005 2.202157376735e+005 2.202157376735e+005 2.174228469587e+005 2.174228469587e+005 2.174228469587e+005 2.174228469587e+005 2.174228469587e+005 2.174228469587e+005 2.174228469587e+005 2.174228469587e+005 2.174228469587e+005 2.145909284564e+005 2.145909284564e+005 2.145909284564e+005 2.145909284564e+005 2.145909284564e+005 2.145909284564e+005 2.145909284564e+005 2.145909284564e+005 2.145909284564e+005 2.117163522101e+005 2.117163522101e+005 2.117163522101e+005 2.117163522101e+005 2.117163522101e+005 2.117163522101e+005 2.117163522101e+005 2.117163522101e+005 2.117163522101e+005 2.087951569260e+005 2.087951569260e+005 2.087951569260e+005 2.087951569260e+005 2.087951569260e+005 2.087951569260e+005 2.087951569260e+005 2.087951569260e+005 2.087951569260e+005 2.058230068069e+005 2.058230068069e+005 2.058230068069e+005 2.058230068069e+005 2.058230068069e+005 2.058230068069e+005 2.058230068069e+005 2.058230068069e+005 2.058230068069e+005 2.027951410483e+005 2.027951410483e+005 2.027951410483e+005 2.027951410483e+005 2.027951410483e+005 2.027951410483e+005 2.027951410483e+005 2.027951410483e+005 2.027951410483e+005 1.997063144382e+005 1.997063144382e+005 1.997063144382e+005 1.997063144382e+005 1.997063144382e+005 1.997063144382e+005 1.997063144382e+005 1.997063144382e+005 1.997063144382e+005 1.965507271062e+005 1.965507271062e+005 1.965507271062e+005 1.965507271062e+005 1.965507271062e+005 1.965507271062e+005 1.965507271062e+005 1.965507271062e+005 1.965507271062e+005 1.933219409405e+005 1.933219409405e+005 1.933219409405e+005 1.933219409405e+005 1.933219409405e+005 1.933219409405e+005 1.933219409405e+005 1.933219409405e+005 1.933219409405e+005 1.900127795136e+005 1.900127795136e+005 1.900127795136e+005 1.900127795136e+005 1.900127795136e+005 1.900127795136e+005 1.900127795136e+005 1.900127795136e+005 1.900127795136e+005 1.866152074339e+005 1.866152074339e+005 1.866152074339e+005 1.866152074339e+005 1.866152074339e+005 1.866152074339e+005 1.866152074339e+005 1.866152074339e+005 1.866152074339e+005 1.831201838201e+005 1.831201838201e+005 1.831201838201e+005 1.831201838201e+005 1.831201838201e+005 1.831201838201e+005 1.831201838201e+005 1.831201838201e+005 1.831201838201e+005 1.795174829022e+005 1.795174829022e+005 1.795174829022e+005 1.795174829022e+005 1.795174829022e+005 1.795174829022e+005 1.795174829022e+005 1.795174829022e+005 1.795174829022e+005 1.757954724141e+005 1.757954724141e+005 1.757954724141e+005 1.757954724141e+005 1.757954724141e+005 1.757954724141e+005 1.757954724141e+005 1.757954724141e+005 1.757954724141e+005 1.719408371129e+005 1.719408371129e+005 1.719408371129e+005 1.719408371129e+005 1.719408371129e+005 1.719408371129e+005 1.719408371129e+005 1.719408371129e+005 1.719408371129e+005 1.679382299360e+005 1.679382299360e+005 1.679382299360e+005 1.679382299360e+005 1.679382299360e+005 1.679382299360e+005 1.679382299360e+005 1.679382299360e+005 1.679382299360e+005 1.637698261784e+005 1.637698261784e+005 1.637698261784e+005 1.637698261784e+005 1.637698261784e+005 1.637698261784e+005 1.637698261784e+005 1.637698261784e+005 1.637698261784e+005 1.594147453173e+005 1.594147453173e+005 1.594147453173e+005 1.594147453173e+005 1.594147453173e+005 1.594147453173e+005 1.594147453173e+005 1.594147453173e+005 1.594147453173e+005 1.548482886635e+005 1.548482886635e+005 1.548482886635e+005 1.548482886635e+005 1.548482886635e+005 1.548482886635e+005 1.548482886635e+005 1.548482886635e+005 1.548482886635e+005 1.500409155241e+005 1.500409155241e+005 1.500409155241e+005 1.500409155241e+005 1.500409155241e+005 1.500409155241e+005 1.500409155241e+005 1.500409155241e+005 1.500409155241e+005 1.449568407255e+005 1.449568407255e+005 1.449568407255e+005 1.449568407254e+005 1.449568407254e+005 1.449568407254e+005 1.449568407254e+005 1.449568407254e+005 1.449568407254e+005 1.395520729752e+005 1.395520729752e+005 1.395520729752e+005 1.395520729752e+005 1.395520729752e+005 1.395520729751e+005 1.395520729751e+005 1.395520729751e+005 1.395520729751e+005 1.337716107554e+005 1.337716107554e+005 1.337716107554e+005 1.337716107554e+005 1.337716107554e+005 1.337716107554e+005 1.337716107554e+005 1.337716107554e+005 1.337716107554e+005 1.275453338658e+005 1.275453338658e+005 1.275453338658e+005 1.275453338657e+005 1.275453338657e+005 1.275453338657e+005 1.275453338657e+005 1.275453338657e+005 1.275453338657e+005 1.207818026273e+005 1.207818026273e+005 1.207818026273e+005 1.207818026273e+005 1.207818026273e+005 1.207818026273e+005 1.207818026272e+005 1.207818026272e+005 1.207818026273e+005 1.133585457668e+005 1.133585457668e+005 1.133585457668e+005 1.133585457668e+005 1.133585457668e+005 1.133585457667e+005 1.133585457668e+005 1.133585457668e+005 1.133585457667e+005 1.051061364207e+005 1.051061364205e+005 1.051061364206e+005 1.051061364204e+005 1.051061364206e+005 1.051061364206e+005 1.051061364205e+005 1.051061364206e+005 1.051061364207e+005 9.578056812198e+004 9.578056812238e+004 9.578056812201e+004 9.578056812274e+004 9.578056812227e+004 9.578056812229e+004 9.578056812237e+004 9.578056812227e+004 9.578056812227e+004 8.501183848266e+004 8.501183848161e+004 8.501183848232e+004 8.501183848045e+004 8.501183848247e+004 8.501183848194e+004 8.501183848168e+004 8.501183848221e+004 8.501183848202e+004 7.220079712077e+004 7.220079712340e+004 7.220079712257e+004 7.220079712827e+004 7.220079712048e+004 7.220079712349e+004 7.220079712557e+004 7.220079712265e+004 7.220079712189e+004 5.628843683550e+004 5.628843682846e+004 5.628843683330e+004 5.628843681435e+004 5.628843683979e+004 5.628843682942e+004 5.628843682239e+004 5.628843683065e+004 5.628843683497e+004 3.522578171944e+004 3.522578174429e+004 3.522578171570e+004 3.522578177729e+004 3.522578170288e+004 3.522578173728e+004 3.522578174887e+004 3.522578173290e+004 3.522578172217e+004 5.760546812176e+003 5.760546695909e+003 5.760546825736e+003 5.760546597907e+003 5.760546860034e+003 5.760546727426e+003 5.760546708800e+003 5.760546743982e+003 5.760546793504e+003 -2.868815806279e+004 -2.868815900956e+004 -2.868816019204e+004 -2.868815789628e+004 -2.868815847450e+004 -2.868815936341e+004 -2.868815916571e+004 -2.868816025653e+004 -2.868815708413e+004 -6.275645078441e+004 -6.275645166823e+004 -6.275645126741e+004 -6.275644940806e+004 -6.275645153497e+004 -6.275645100089e+004 -6.275644998959e+004 -6.275645021960e+004 -6.275644963599e+004 -9.642125917880e+004 -9.642125841587e+004 -9.642125801762e+004 -9.642125770845e+004 -9.642125484890e+004 -9.642125494202e+004 -9.642125740226e+004 -9.642125604497e+004 -9.642125580631e+004 -1.296730883617e+005 -1.296730858863e+005 -1.296730856769e+005 -1.296730838967e+005 -1.296730822005e+005 -1.296730825658e+005 -1.296730849551e+005 -1.296730837232e+005 -1.296730846751e+005 -1.625205910837e+005 -1.625205903302e+005 -1.625205903295e+005 -1.625205895141e+005 -1.625205887438e+005 -1.625205886432e+005 -1.625205898498e+005 -1.625205902184e+005 -1.625205899665e+005 -1.949775939226e+005 -1.949775961120e+005 -1.949775966187e+005 -1.949775973372e+005 -1.949775959225e+005 -1.949775966794e+005 -1.949775979726e+005 -1.949775966747e+005 -1.949775958824e+005 -2.270580433067e+005 -2.270580412078e+005 -2.270580437847e+005 -2.270580439383e+005 -2.270580426469e+005 -2.270580450015e+005 -2.270580435873e+005 -2.270580438153e+005 -2.270580432746e+005 -2.587757713487e+005 -2.587757699861e+005 -2.587757698121e+005 -2.587757695624e+005 -2.587757691994e+005 -2.587757710400e+005 -2.587757706967e+005 -2.587757712109e+005 -2.587757693040e+005 -2.901443555494e+005 -2.901443588785e+005 -2.901443593324e+005 -2.901443591226e+005 -2.901443584985e+005 -2.901443601037e+005 -2.901443597945e+005 -2.901443599519e+005 -2.901443605436e+005 -3.211771262708e+005 -3.211771296910e+005 -3.211771287661e+005 -3.211771287987e+005 -3.211771317814e+005 -3.211771298405e+005 -3.211771311998e+005 -3.211771312285e+005 -3.211771315206e+005 -3.518872455971e+005 -3.518872471408e+005 -3.518872475762e+005 -3.518872465307e+005 -3.518872478862e+005 -3.518872483247e+005 -3.518872494679e+005 -3.518872480162e+005 -3.518872482516e+005 -3.822878289361e+005 -3.822878278045e+005 -3.822878279979e+005 -3.822878293026e+005 -3.822878279328e+005 -3.822878287566e+005 -3.822878288615e+005 -3.822878284170e+005 -3.822878279858e+005 -4.123920224670e+005 -4.123920236260e+005 -4.123920220355e+005 -4.123920226436e+005 -4.123920224633e+005 -4.123920232253e+005 -4.123920233069e+005 -4.123920222245e+005 -4.123920234554e+005 -4.422130676773e+005 -4.422130647510e+005 -4.422130640832e+005 -4.422130655574e+005 -4.422130646777e+005 -4.422130639243e+005 -4.422130645394e+005 -4.422130640028e+005 -4.422130653859e+005 -4.717642937673e+005 -4.717642907436e+005 -4.717642892666e+005 -4.717642906183e+005 -4.717642907562e+005 -4.717642910706e+005 -4.717642908935e+005 -4.717642913723e+005 -4.717642892947e+005 -5.010591315642e+005 -5.010591305126e+005 -5.010591291932e+005 -5.010591300543e+005 -5.010591306345e+005 -5.010591304613e+005 -5.010591306329e+005 -5.010591293874e+005 -5.010591293767e+005 -5.301110871848e+005 -5.301110852568e+005 -5.301110840701e+005 -5.301110844159e+005 -5.301110839422e+005 -5.301110824604e+005 -5.301110842242e+005 -5.301110836597e+005 -5.301110831299e+005 -5.589337079476e+005 -5.589337050840e+005 -5.589337043970e+005 -5.589337025565e+005 -5.589337026518e+005 -5.589337023862e+005 -5.589337026505e+005 -5.589337013278e+005 -5.589337006063e+005 -5.875405710571e+005 -5.875405701228e+005 -5.875405690898e+005 -5.875405677206e+005 -5.875405671209e+005 -5.875405662369e+005 -5.875405663442e+005 -5.875405649519e+005 -5.875405654747e+005 -6.159452761986e+005 -6.159452760478e+005 -6.159452738781e+005 -6.159452751739e+005 -6.159452728725e+005 -6.159452724409e+005 -6.159452721611e+005 -6.159452710193e+005 -6.159452699248e+005 -6.441614258857e+005 -6.441614248946e+005 -6.441614258292e+005 -6.441614235523e+005 -6.441614232277e+005 -6.441614220751e+005 -6.441614218476e+005 -6.441614216533e+005 -6.441614205797e+005 -6.722026225232e+005 -6.722026241013e+005 -6.722026234644e+005 -6.722026232849e+005 -6.722026218532e+005 -6.722026214233e+005 -6.722026205672e+005 -6.722026191724e+005 -6.722026184976e+005 -7.000824733128e+005 -7.000824751925e+005 -7.000824759232e+005 -7.000824744583e+005 -7.000824728479e+005 -7.000824729506e+005 -7.000824713792e+005 -7.000824700296e+005 -7.000824698727e+005 -7.278145773053e+005 -7.278145796419e+005 -7.278145794954e+005 -7.278145794614e+005 -7.278145784897e+005 -7.278145767153e+005 -7.278145755252e+005 -7.278145752300e+005 -7.278145745541e+005 -7.554125369980e+005 -7.554125350562e+005 -7.554125359184e+005 -7.554125358529e+005 -7.554125355382e+005 -7.554125329782e+005 -7.554125319552e+005 -7.554125327542e+005 -7.554125324238e+005 -7.828899419095e+005 -7.828899413431e+005 -7.828899411064e+005 -7.828899410100e+005 -7.828899400412e+005 -7.828899378046e+005 -7.828899384497e+005 -7.828899378184e+005 -7.828899381494e+005 -8.102603896002e+005 -8.102603888226e+005 -8.102603887744e+005 -8.102603873450e+005 -8.102603871932e+005 -8.102603861490e+005 -8.102603858708e+005 -8.102603852807e+005 -8.102603859891e+005 -8.375374694966e+005 -8.375374685958e+005 -8.375374689665e+005 -8.375374685991e+005 -8.375374674642e+005 -8.375374673451e+005 -8.375374667250e+005 -8.375374666552e+005 -8.375374654619e+005 -8.647347697104e+005 -8.647347703812e+005 -8.647347711566e+005 -8.647347706960e+005 -8.647347699598e+005 -8.647347702603e+005 -8.647347696109e+005 -8.647347696450e+005 -8.647347693718e+005 -8.918658795066e+005 -8.918658802774e+005 -8.918658808208e+005 -8.918658802361e+005 -8.918658801905e+005 -8.918658804127e+005 -8.918658795970e+005 -8.918658801283e+005 -8.918658801983e+005 -9.189443809862e+005 -9.189443811000e+005 -9.189443814436e+005 -9.189443815692e+005 -9.189443804261e+005 -9.189443802658e+005 -9.189443805701e+005 -9.189443808358e+005 -9.189443806784e+005 -9.459838509184e+005 -9.459838517407e+005 -9.459838523726e+005 -9.459838522999e+005 -9.459838519953e+005 -9.459838513169e+005 -9.459838513168e+005 -9.459838514870e+005 -9.459838515992e+005 -9.729978678363e+005 -9.729978682683e+005 -9.729978685201e+005 -9.729978683700e+005 -9.729978684632e+005 -9.729978680041e+005 -9.729978680037e+005 -9.729978681676e+005 -9.729978680097e+005 -1.000000000000e+006 -1.000000000000e+006 -1.000000000000e+006 -1.000000000000e+006 -1.000000000000e+006 -1.000000000000e+006 -1.000000000000e+006 -1.000000000000e+006 -1.000000000000e+006 
        </DataArray>
        <DataArray type="Float64" Name="NONWET_PRESSURE" format="ascii">