<?xml version="1.0"?>
<VTKFile type="UnstructuredGrid" version="0.1" byte_order="LittleEndian">
  <UnstructuredGrid>
    <Piece NumberOfPoints="909" NumberOfCells="800">
      <Points>
        <DataArray type="Float64" NumberOfComponents="3" format="ascii">
          0.000000000000e+000 0.000000000000e+000 0.000000000000e+000
          2.000000000000e+000 0.000000000000e+000 0.000000000000e+000
          2.000000000000e+000 2.500000000000e+000 0.000000000000e+000
          0.000000000000e+000 2.500000000000e+000 0.000000000000e+000
          2.000000000000e+000 5.000000000000e+000 0.000000000000e+000
          0.000000000000e+000 5.000000000000e+000 0.000000000000e+000
          2.000000000000e+000 7.500000000000e+000 0.000000000000e+000
          0.000000000000e+000 7.500000000000e+000 0.000000000000e+000
          2.000000000000e+000 1.000000000000e+001 0.000000000000e+000
          0.000000000000e+000 1.000000000000e+001 0.000000000000e+000
          2.000000000000e+000 1.250000000000e+001 0.000000000000e+000
          0.000000000000e+000 1.250000000000e+001 0.000000000000e+000
          2.000000000000e+000 1.500000000000e+001 0.000000000000e+000
          0.000000000000e+000 1.500000000000e+001 0.000000000000e+000
          2.000000000000e+000 1.750000000000e+001 0.000000000000e+000
          0.000000000000e+000 1.750000000000e+001 0.000000000000e+000
          2.000000000000e+000 2.000000000000e+001 0.000000000000e+000
          0.000000000000e+000 2.000000000000e+001 0.000000000000e+000
          4.000000000000e+000 0.000000000000e+000 0.000000000000e+000
          4.000000000000e+000 2.500000000000e+000 0.000000000000e+000
          4.000000000000e+000 5.000000000000e+000 0.000000000000e+000
          4.000000000000e+000 7.500000000000e+000 0.000000000000e+000
          4.000000000000e+000 1.000000000000e+001 0.000000000000e+000
          4.000000000000e+000 1.250000000000e+001 0.000000000000e+000
          4.000000000000e+000 1.500000000000e+001 0.000000000000e+000
          4.000000000000e+000 1.750000000000e+001 0.000000000000e+000
          4.000000000000e+000 2.000000000000e+001 0.000000000000e+000
          6.000000000000e+000 0.000000000000e+000 0.000000000000e+000
          6.000000000000e+000 2.500000000000e+000 0.000000000000e+000
          6.000000000000e+000 5.000000000000e+000 0.000000000000e+000
          6.000000000000e+000 7.500000000000e+000 0.000000000000e+000
          6.000000000000e+000 1.000000000000e+001 0.000000000000e+000
          6.000000000000e+000 1.250000000000e+001 0.000000000000e+000
          6.000000000000e+000 1.500000000000e+001 0.000000000000e+000
          6.000000000000e+000 1.750000000000e+001 0.000000000000e+000
          6.000000000000e+000 2.000000000000e+001 0.000000000000e+000
          8.000000000000e+000 0.000000000000e+000 0.000000000000e+000
          8.000000000000e+000 2.500000000000e+000 0.000000000000e+000
          8.000000000000e+000 5.000000000000e+000 0.000000000000e+000
          8.000000000000e+000 7.500000000000e+000 0.000000000000e+000
          8.000000000000e+000 1.000000000000e+001 0.000000000000e+000
          8.000000000000e+000 1.250000000000e+001 0.000000000000e+000
          8.000000000000e+000 1.500000000000e+001 0.000000000000e+000
          8.000000000000e+000 1.750000000000e+001 0.000000000000e+000
          8.000000000000e+000 2.000000000000e+001 0.000000000000e+000
          1.000000000000e+001 0.000000000000e+000 0.000000000000e+000
          1.000000000000e+001 2.500000000000e+000 0.000000000000e+000
          1.000000000000e+001 5.000000000000e+000 0.000000000000e+000
          1.000000000000e+001 7.500000000000e+000 0.000000000000e+000
          1.000000000000e+001 1.000000000000e+001 0.000000000000e+000
          1.000000000000e+001 1.250000000000e+001 0.000000000000e+000
          1.000000000000e+001 1.500000000000e+001 0.000000000000e+000
          1.000000000000e+001 1.750000000000e+001 0.000000000000e+000
          1.000000000000e+001 2.000000000000e+001 0.000000000000e+000
          1.200000000000e+001 0.000000000000e+000 0.000000000000e+000
          1.200000000000e+001 2.500000000000e+000 0.000000000000e+000
          1.200000000000e+001 5.000000000000e+000 0.000000000000e+000
          1.200000000000e+001 7.500000000000e+000 0.000000000000e+000
          1.200000000000e+001 1.000000000000e+001 0.000000000000e+000
          1.200000000000e+001 1.250000000000e+001 0.000000000000e+000
          1.200000000000e+001 1.500000000000e+001 0.000000000000e+000
          1.200000000000e+001 1.750000000000e+001 0.000000000000e+000
          1.200000000000e+001 2.000000000000e+001 0.000000000000e+000
          1.400000000000e+001 0.000000000000e+000 0.000000000000e+000
          1.400000000000e+001 2.500000000000e+000 0.000000000000e+000
          1.400000000000e+001 5.000000000000e+000 0.000000000000e+000
          1.400000000000e+001 7.500000000000e+000 0.000000000000e+000
          1.400000000000e+001 1.000000000000e+001 0.000000000000e+000
          1.400000000000e+001 1.250000000000e+001 0.000000000000e+000
          1.400000000000e+001 1.500000000000e+001 0.000000000000e+000
          1.400000000000e+001 1.750000000000e+001 0.000000000000e+000
          1.400000000000e+001 2.000000000000e+001 0.000000000000e+000
          1.600000000000e+001 0.000000000000e+000 0.000000000000e+000
          1.600000000000e+001 2.500000000000e+000 0.000000000000e+000
          1.600000000000e+001 5.000000000000e+000 0.000000000000e+000
          1.600000000000e+001 7.500000000000e+000 0.000000000000e+000
          1.600000000000e+001 1.000000000000e+001 0.000000000000e+000
          1.600000000000e+001 1.250000000000e+001 0.000000000000e+000
          1.600000000000e+001 1.500000000000e+001 0.000000000000e+000
          1.600000000000e+001 1.750000000000e+001 0.000000000000e+000
          1.600000000000e+001 2.000000000000e+001 0.000000000000e+000
          1.800000000000e+001 0.000000000000e+000 0.000000000000e+000
          1.800000000000e+001 2.500000000000e+000 0.000000000000e+000
          1.800000000000e+001 5.000000000000e+000 0.000000000000e+000
          1.800000000000e+001 7.500000000000e+000 0.000000000000e+000
          1.800000000000e+001 1.000000000000e+001 0.000000000000e+000
          1.800000000000e+001 1.250000000000e+001 0.000000000000e+000
          1.800000000000e+001 1.500000000000e+001 0.000000000000e+000
          1.800000000000e+001 1.750000000000e+001 0.000000000000e+000
          1.800000000000e+001 2.000000000000e+001 0.000000000000e+000
          2.000000000000e+001 0.000000000000e+000 0.000000000000e+000
          2.000000000000e+001 2.500000000000e+000 0.000000000000e+000
          2.000000000000e+001 5.000000000000e+000 0.000000000000e+000
          2.000000000000e+001 7.500000000000e+000 0.000000000000e+000
          2.000000000000e+001 1.000000000000e+001 0.000000000000e+000
          2.000000000000e+001 1.250000000000e+001 0.000000000000e+000
          2.000000000000e+001 1.500000000000e+001 0.000000000000e+000
          2.000000000000e+001 1.750000000000e+001 0.000000000000e+000
          2.000000000000e+001 2.000000000000e+001 0.000000000000e+000
          2.200000000000e+001 0.000000000000e+000 0.000000000000e+000
          2.200000000000e+001 2.500000000000e+000 0.000000000000e+000
          2.200000000000e+001 5.000000000000e+000 0.000000000000e+000
          2.200000000000e+001 7.500000000000e+000 0.000000000000e+000
          2.200000000000e+001 1.000000000000e+001 0.000000000000e+000
          2.200000000000e+001 1.250000000000e+001 0.000000000000e+000
          2.200000000000e+001 1.500000000000e+001 0.000000000000e+000
          2.200000000000e+001 1.750000000000e+001 0.000000000000e+000
          2.200000000000e+001 2.000000000000e+001 0.000000000000e+000
          2.400000000000e+001 0.000000000000e+000 0.000000000000e+000
          2.400000000000e+001 2.500000000000e+000 0.000000000000e+000
          2.400000000000e+001 5.000000000000e+000 0.000000000000e+000
          2.400000000000e+001 7.500000000000e+000 0.000000000000e+000
          2.400000000000e+001 1.000000000000e+001 0.000000000000e+000
          2.400000000000e+001 1.250000000000e+001 0.000000000000e+000
          2.400000000000e+001 1.500000000000e+001 0.000000000000e+000
          2.400000000000e+001 1.750000000000e+001 0.000000000000e+000
          2.400000000000e+001 2.000000000000e+001 0.000000000000e+000
          2.600000000000e+001 0.000000000000e+000 0.000000000000e+000
          2.600000000000e+001 2.500000000000e+000 0.000000000000e+000
          2.600000000000e+001 5.000000000000e+000 0.000000000000e+000
          2.600000000000e+001 7.500000000000e+000 0.000000000000e+000
          2.600000000000e+001 1.000000000000e+001 0.000000000000e+000
          2.600000000000e+001 1.250000000000e+001 0.000000000000e+000
          2.600000000000e+001 1.500000000000e+001 0.000000000000e+000
          2.600000000000e+001 1.750000000000e+001 0.000000000000e+000
          2.600000000000e+001 2.000000000000e+001 0.000000000000e+000
          2.800000000000e+001 0.000000000000e+000 0.000000000000e+000
          2.800000000000e+001 2.500000000000e+000 0.000000000000e+000
          2.800000000000e+001 5.000000000000e+000 0.000000000000e+000
          2.800000000000e+001 7.500000000000e+000 0.000000000000e+000
          2.800000000000e+001 1.000000000000e+001 0.000000000000e+000
          2.800000000000e+001 1.250000000000e+001 0.000000000000e+000
          2.800000000000e+001 1.500000000000e+001 0.000000000000e+000
          2.800000000000e+001 1.750000000000e+001 0.000000000000e+000
          2.800000000000e+001 2.000000000000e+001 0.000000000000e+000
          3.000000000000e+001 0.000000000000e+000 0.000000000000e+000
          3.000000000000e+001 2.500000000000e+000 0.000000000000e+000
          3.000000000000e+001 5.000000000000e+000 0.000000000000e+000
          3.000000000000e+001 7.500000000000e+000 0.000000000000e+000
[...]
      <PointData Scalars="CAPILLARY_PRESSURE">
        <DataArray type="Float64" Name="CAPILLARY_PRESSURE" format="ascii">
          2.072696946642e+005 2.023247909534e+005 2.023247909534e+005 2.072696946642e+005 2.023247909534e+005 2.072696946642e+005 2.023247909534e+005 2.072696946642e+005 2.023247909534e+005 2.072696946642e+005 2.023247909534e+005 2.072696946641e+005 2.023247909533e+005 2.072696946641e+005 2.023247909533e+005 2.072696946641e+005 2.023247909533e+005 2.072696946641e+005 1.972947971840e+005 1.972947971840e+005 1.972947971840e+005 1.972947971840e+005 1.972947971840e+005 1.972947971839e+005 1.972947971839e+005 1.972947971839e+005 1.972947971839e+005 1.921686050174e+005 1.921686050174e+005 1.921686050174e+005 1.921686050174e+005 1.921686050173e+005 1.921686050173e+005 1.921686050173e+005 1.921686050173e+005 1.921686050173e+005 1.869327170137e+005 1.869327170136e+005 1.869327170136e+005 1.869327170136e+005 1.869327170136e+005 1.869327170136e+005 1.869327170135e+005 1.869327170135e+005 1.869327170135e+005 1.815719896433e+005 1.815719896433e+005 1.815719896433e+005 1.815719896433e+005 1.815719896432e+005 1.815719896432e+005 1.815719896432e+005 1.815719896432e+005 1.815719896431e+005 1.760686315321e+005 1.760686315321e+005 1.760686315321e+005 1.760686315321e+005 1.760686315320e+005 1.760686315320e+005 1.760686315319e+005 1.760686315319e+005 1.760686315319e+005 1.704017033989e+005 1.704017033989e+005 1.704017033989e+005 1.704017033988e+005 1.704017033988e+005 1.704017033987e+005 1.704017033987e+005 1.704017033986e+005 1.704017033986e+005 1.645462973021e+005 1.645462973020e+005 1.645462973020e+005 1.645462973019e+005 1.645462973018e+005 1.645462973018e+005 1.645462973017e+005 1.645462973016e+005 1.645462973016e+005 1.584724481796e+005 1.584724481796e+005 1.584724481795e+005 1.584724481795e+005 1.584724481794e+005 1.584724481793e+005 1.584724481792e+005 1.584724481792e+005 1.584724481791e+005 1.521436329143e+005 1.521436329143e+005 1.521436329142e+005 1.521436329140e+005 1.521436329139e+005 1.521436329138e+005 1.521436329138e+005 1.521436329136e+005 1.521436329138e+005 1.455147055977e+005 1.455147055975e+005 1.455147055976e+005 1.455147055979e+005 1.455147055978e+005 1.455147055974e+005 1.455147055972e+005 1.455147055975e+005 1.455147055968e+005 1.385290761476e+005 1.385290761490e+005 1.385290761476e+005 1.385290761447e+005 1.385290761430e+005 1.385290761439e+005 1.385290761434e+005 1.385290761426e+005 1.385290761462e+005 1.311138035014e+005 1.311138034959e+005 1.311138035034e+005 1.311138035208e+005 1.311138035337e+005 1.311138035350e+005 1.311138035415e+005 1.311138035455e+005 1.311138035285e+005 1.231729755282e+005 1.231729755507e+005 1.231729755380e+005 1.231729754915e+005 1.231729754653e+005 1.231729754764e+005 1.231729754623e+005 1.231729754505e+005 1.231729755189e+005 1.145798444470e+005 1.145798443926e+005 1.145798444101e+005 1.145798445192e+005 1.145798445632e+005 1.145798445046e+005 1.145798445321e+005 1.145798445900e+005 1.145798443860e+005 1.051488287471e+005 1.051488288227e+005 1.051488288436e+005 1.051488286850e+005 1.051488286671e+005 1.051488288982e+005 1.051488289104e+005 1.051488287318e+005 1.051488291927e+005 9.462482583262e+004 9.462482588469e+004 9.462482576584e+004 9.462482599552e+004 9.462482607134e+004 9.462482559116e+004 9.462482549878e+004 9.462482589187e+004 9.462482515495e+004 8.259162142629e+004 8.259162092414e+004 8.259162114665e+004 8.259162038891e+004 8.259161962014e+004 8.259161999686e+004 8.259162003619e+004 8.259161957095e+004 8.259162050715e+004 6.839187366575e+004 6.839187468439e+004 6.839187375920e+004 6.839187505902e+004 6.839187616316e+004 6.839187594189e+004 6.839187519839e+004 6.839187583877e+004 6.839187417354e+004 5.081059071937e+004 5.081058736602e+004 5.081058919581e+004 5.081058769299e+004 5.081058549709e+004 5.081058404076e+004 5.081058623195e+004 5.081058672557e+004 5.081058438079e+004 2.755554343205e+004 2.755554457836e+004 2.755554182899e+004 2.755554354310e+004 2.755554182825e+004 2.755555067362e+004 2.755554073211e+004 2.755554497318e+004 2.755554242876e+004 -4.035541111320e+003 -4.035541706982e+003 -4.035534621834e+003 -4.035527528339e+003 -4.035521475784e+003 -4.035517295133e+003 -4.035516893498e+003 -4.035515897276e+003 -4.035516087926e+003 -3.788807052384e+004 -3.788804331925e+004 -3.788804658342e+004 -3.788803671636e+004 -3.788802477820e+004 -3.788802540557e+004 -3.788802002840e+004 -3.788800979902e+004 -3.788801896542e+004 -7.086765113840e+004 -7.086764310211e+004 -7.086762949487e+004 -7.086762487861e+004 -7.086761445241e+004 -7.086761218998e+004 -7.086761293324e+004 -7.086760601382e+004 -7.086761553658e+004 -1.029883658486e+005 -1.029883502551e+005 -1.029883442146e+005 -1.029883379258e+005 -1.029883239859e+005 -1.029883210394e+005 -1.029883173388e+005 -1.029883267912e+005 -1.029883307805e+005 -1.342580033624e+005 -1.342580073917e+005 -1.342580041420e+005 -1.342579923517e+005 -1.342579835531e+005 -1.342579759621e+005 -1.342579762008e+005 -1.342579867657e+005 -1.342579929105e+005 -1.646871999018e+005 -1.646871903334e+005 -1.646871819036e+005 -1.646871690978e+005 -1.646871656689e+005 -1.646871698578e+005 -1.646871669367e+005 -1.646871639607e+005 -1.646871603947e+005 -1.942889534115e+005 -1.942889486003e+005 -1.942889338909e+005 -1.942889315604e+005 -1.942889263740e+005 -1.942889277197e+005 -1.942889222959e+005 -1.942889244419e+005 -1.942889204840e+005 -2.230775970053e+005 -2.230775935210e+005 -2.230775881675e+005 -2.230775889262e+005 -2.230775796770e+005 -2.230775869842e+005 -2.230775783735e+005 -2.230775764776e+005 -2.230775777532e+005 -2.510678984857e+005 -2.510679135262e+005 -2.510679015176e+005 -2.510679029022e+005 -2.510679051636e+005 -2.510678998232e+005 -2.510678960698e+005 -2.510678920123e+005 -2.510678967432e+005 -2.782746900182e+005 -2.782747008144e+005 -2.782747046296e+005 -2.782747057292e+005 -2.782747160208e+005 -2.782747007574e+005 -2.782746971947e+005 -2.782746879681e+005 -2.782746910497e+005 -3.047126982586e+005 -3.047127134919e+005 -3.047127058482e+005 -3.047127177577e+005 -3.047127227089e+005 -3.047127256614e+005 -3.047127150625e+005 -3.047127082250e+005 -3.047127002971e+005 -3.303965388182e+005 -3.303965496598e+005 -3.303965527501e+005 -3.303965574585e+005 -3.303965600825e+005 -3.303965653358e+005 -3.303965499858e+005 -3.303965351058e+005 -3.303965383727e+005 -3.553406780915e+005 -3.553406851110e+005 -3.553406886728e+005 -3.553406966500e+005 -3.553407021012e+005 -3.553406842699e+005 -3.553406770849e+005 -3.553406756290e+005 -3.553406634790e+005 -3.795594573576e+005 -3.795594616458e+005 -3.795594496776e+005 -3.795594643465e+005 -3.795594654456e+005 -3.795594573153e+005 -3.795594391802e+005 -3.795594365595e+005 -3.795594439070e+005 -4.030670802492e+005 -4.030670648903e+005 -4.030670698613e+005 -4.030670726772e+005 -4.030670764210e+005 -4.030670569110e+005 -4.030670585741e+005 -4.030670459897e+005 -4.030670499170e+005 -4.258775958393e+005 -4.258776011129e+005 -4.258776044146e+005 -4.258776113106e+005 -4.258776064531e+005 -4.258775918591e+005 -4.258775898808e+005 -4.258775854025e+005 -4.258775775661e+005 -4.480050139146e+005 -4.480050198090e+005 -4.480050219078e+005 -4.480050258983e+005 -4.480050214033e+005 -4.480050062860e+005 -4.480050008919e+005 -4.480049977472e+005 -4.480049940275e+005 -4.694631787101e+005 -4.694631723343e+005 -4.694631818057e+005 -4.694631795748e+005 -4.694631714669e+005 -4.694631623749e+005 -4.694631470640e+005 -4.694631536387e+005 -4.694631476738e+005 -4.902658277408e+005 -4.902658207538e+005 -4.902658294663e+005 -4.902658269098e+005 -4.902658191800e+005 -4.902658091937e+005 -4.902658025329e+005 -4.902657930422e+005 -4.902657962978e+005 -5.104266355983e+005 -5.104266367779e+005 -5.104266414559e+005 -5.104266385911e+005 -5.104266349096e+005 -5.104266178717e+005 -5.104266106694e+005 -5.104266120427e+005 -5.104266027718e+005 -5.299591838622e+005 -5.299591922660e+005 -5.299591861314e+005 -5.299591813876e+005 -5.299591791918e+005 -5.299591679971e+005 -5.299591570483e+005 -5.299591529176e+005 -5.299591506297e+005 -5.488769634594e+005 -5.488769480456e+005 -5.488769514508e+005 -5.488769419136e+005 -5.488769414824e+005 -5.488769343963e+005 -5.488769355304e+005 -5.488769144945e+005 -5.488769210881e+005 -5.671933367352e+005 -5.671933415234e+005 -5.671933360901e+005 -5.671933270529e+005 -5.671933248967e+005 -5.671933246497e+005 -5.671933135130e+005 -5.671933077326e+005 -5.671933042028e+005 -5.849216467410e+005 -5.849216509547e+005 -5.849216541060e+005 -5.849216393999e+005 -5.849216314681e+005 -5.849216320476e+005 -5.849216245757e+005 -5.849216207592e+005 -5.849216122728e+005 -6.020751012274e+005 -6.020751035677e+005 -6.020751001794e+005 -6.020750945756e+005 -6.020750869636e+005 -6.020750778733e+005 -6.020750721115e+005 -6.020750692553e+005 -6.020750711068e+005 -6.186668195095e+005 -6.186668133568e+005 -6.186668102952e+005 -6.186668018286e+005 -6.186667959151e+005 -6.186667853801e+005 -6.186667818562e+005 -6.186667761265e+005 -6.186667737795e+005 -6.347098029759e+005 -6.347097999058e+005 -6.347097932582e+005 -6.347097868600e+005 -6.347097757612e+005 -6.347097688687e+005 -6.347097673763e+005 -6.347097608704e+005 -6.347097575095e+005 -6.502169828182e+005 -6.502169808505e+005 -6.502169748073e+005 -6.502169660299e+005 -6.502169584324e+005 -6.502169530131e+005 -6.502169460216e+005 -6.502169431084e+005 -6.502169374624e+005 -6.652011796693e+005 -6.652011749077e+005 -6.652011722514e+005 -6.652011666903e+005 -6.652011602638e+005 -6.652011503073e+005 -6.652011435465e+005 -6.652011388709e+005 -6.652011392248e+005 -6.796751126859e+005 -6.796751104682e+005 -6.796751073898e+005 -6.796751026877e+005 -6.796750955240e+005 -6.796750851399e+005 -6.796750808050e+005 -6.796750749986e+005 -6.796750739293e+005 -6.936513971720e+005 -6.936513963224e+005 -6.936513938307e+005 -6.936513892941e+005 -6.936513840332e+005 -6.936513771149e+005 -6.936513732739e+005 -6.936513655265e+005 -6.936513693907e+005 -7.071425457146e+005 -7.071425412339e+005 -7.071425406845e+005 -7.071425391334e+005 -7.071425375831e+005 -7.071425300515e+005 -7.071425261544e+005 -7.071425233466e+005 -7.071425222416e+005 -7.201609592904e+005 -7.201609667466e+005 -7.201609633594e+005 -7.201609602278e+005 -7.201609595557e+005 -7.201609578406e+005 -7.201609519755e+005 -7.201609476011e+005 -7.201609457136e+005 -7.327189576753e+005 -7.327189601447e+005 -7.327189592172e+005 -7.327189536567e+005 -7.327189513232e+005 -7.327189496154e+005 -7.327189458541e+005 -7.327189462463e+005 -7.327189430531e+005 -7.448287156684e+005 -7.448287149465e+005 -7.448287133471e+005 -7.448287106258e+005 -7.448287090490e+005 -7.448287081790e+005 -7.448287042551e+005 -7.448287080165e+005 -7.448287045670e+005 -7.565023171581e+005 -7.565023178546e+005 -7.565023159332e+005 -7.565023122047e+005 -7.565023111893e+005 -7.565023118609e+005 -7.565023084344e+005 -7.565023091118e+005 -7.565023069867e+005 -7.677517373857e+005 -7.677517377510e+005 -7.677517357741e+005 -7.677517351816e+005 -7.677517330444e+005 -7.677517339037e+005 -7.677517323942e+005 -7.677517313151e+005 -7.677517333988e+005 -7.785888391241e+005 -7.785888404832e+005 -7.785888419021e+005 -7.785888416453e+005 -7.785888435395e+005 -7.785888395337e+005 -7.785888385842e+005 -7.785888396275e+005 -7.785888413682e+005 -7.890253843020e+005 -7.890253850188e+005 -7.890253887633e+005 -7.890253888683e+005 -7.890253875462e+005 -7.890253838542e+005 -7.890253852526e+005 -7.890253864827e+005 -7.890253876131e+005 -7.990730157277e+005 -7.990730191162e+005 -7.990730193308e+005 -7.990730187138e+005 -7.990730157014e+005 -7.990730165080e+005 -7.990730184599e+005 -7.990730157855e+005 -7.990730166378e+005 -8.087432635359e+005 -8.087432638695e+005 -8.087432637462e+005 -8.087432632253e+005 -8.087432622929e+005 -8.087432605311e+005 -8.087432630206e+005 -8.087432613511e+005 -8.087432610473e+005 -8.180475482138e+005 -8.180475451943e+005 -8.180475468706e+005 -8.180475458611e+005 -8.180475430246e+005 -8.180475442562e+005 -8.180475458537e+005 -8.180475452338e+005 -8.180475450784e+005 -8.269971754787e+005 -8.269971767905e+005 -8.269971768505e+005 -8.269971775421e+005 -8.269971739547e+005 -8.269971739318e+005 -8.269971771944e+005 -8.269971765748e+005 -8.269971750511e+005 -8.356033570582e+005 -8.356033581331e+005 -8.356033574320e+005 -8.356033561740e+005 -8.356033546071e+005 -8.356033555603e+005 -8.356033584151e+005 -8.356033580232e+005 -8.356033555341e+005 -8.438771740787e+005 -8.438771750529e+005 -8.438771748449e+005 -8.438771754285e+005 -8.438771725006e+005 -8.438771739069e+005 -8.438771760071e+005 -8.438771750118e+005 -8.438771733408e+005 -8.518296096212e+005 -8.518296106159e+005 -8.518296119066e+005 -8.518296092622e+005 -8.518296094838e+005 -8.518296105782e+005 -8.518296108932e+005 -8.518296118824e+005 -8.518296084653e+005 -8.594715335717e+005 -8.594715344686e+005 -8.594715340308e+005 -8.594715320468e+005 -8.594715340580e+005 -8.594715335970e+005 -8.594715327292e+005 -8.594715329874e+005 -8.594715323745e+005 -8.668137100947e+005 -8.668137093230e+005 -8.668137088914e+005 -8.668137085218e+005 -8.668137056262e+005 -8.668137057396e+005 -8.668137082514e+005 -8.668137069246e+005 -8.668137066917e+005 -8.738667905231e+005 -8.738667880404e+005 -8.738667878085e+005 -8.738667860000e+005 -8.738667842864e+005 -8.738667846588e+005 -8.738667870698e+005 -8.738667858560e+005 -8.738667868141e+005 -8.806413202832e+005 -8.806413195247e+005 -8.806413195112e+005 -8.806413186806e+005 -8.806413179016e+005 -8.806413178029e+005 -8.806413190191e+005 -8.806413193973e+005 -8.806413191492e+005 -8.871477447865e+005 -8.871477469730e+005 -8.871477474725e+005 -8.871477481827e+005 -8.871477467629e+005 -8.871477475200e+005 -8.871477488174e+005 -8.871477475242e+005 -8.871477467339e+005 -8.933964101640e+005 -8.933964080634e+005 -8.933964106362e+005 -8.933964107851e+005 -8.933964094906e+005 -8.933964118448e+005 -8.933964104323e+005 -8.933964106625e+005 -8.933964101227e+005 -8.993975435491e+005 -8.993975421855e+005 -8.993975420092e+005 -8.993975417568e+005 -8.993975413918e+005 -8.993975432319e+005 -8.993975428891e+005 -8.993975434042e+005 -8.993975414977e+005 -9.051612751223e+005 -9.051612784508e+005 -9.051612789034e+005 -9.051612786919e+005 -9.051612780666e+005 -9.051612796713e+005 -9.051612793621e+005 -9.051612795198e+005 -9.051612801117e+005 -9.106976534117e+005 -9.106976568316e+005 -9.106976559059e+005 -9.106976559375e+005 -9.106976589193e+005 -9.106976569779e+005 -9.106976583370e+005 -9.106976583658e+005 -9.106976586580e+005 -9.160166159926e+005 -9.160166175360e+005 -9.160166179710e+005 -9.160166169248e+005 -9.160166182797e+005 -9.160166187178e+005 -9.160166198608e+005 -9.160166184091e+005 -9.160166186445e+005 -9.211280082845e+005 -9.211280071528e+005 -9.211280073459e+005 -9.211280086502e+005 -9.211280072799e+005 -9.211280081034e+005 -9.211280082081e+005 -9.211280077636e+005 -9.211280073324e+005 -9.260415803762e+005 -9.260415815352e+005 -9.260415799444e+005 -9.260415805523e+005 -9.260415803716e+005 -9.260415811334e+005 -9.260415812148e+005 -9.260415801324e+005 -9.260415813632e+005 -9.307670042601e+005 -9.307670013339e+005 -9.307670006659e+005 -9.307670021399e+005 -9.307670012599e+005 -9.307670005064e+005 -9.307670011213e+005 -9.307670005846e+005 -9.307670019678e+005 -9.353138522150e+005 -9.353138491913e+005 -9.353138477141e+005 -9.353138490657e+005 -9.353138492034e+005 -9.353138495177e+005 -9.353138493405e+005 -9.353138498192e+005 -9.353138477417e+005 -9.396916218611e+005 -9.396916208095e+005 -9.396916194901e+005 -9.396916203510e+005 -9.396916209311e+005 -9.396916207578e+005 -9.396916209293e+005 -9.396916196838e+005 -9.396916196730e+005 -9.439097337448e+005 -9.439097318168e+005 -9.439097306300e+005 -9.439097309757e+005 -9.439097305020e+005 -9.439097290201e+005 -9.439097307838e+005 -9.439097302193e+005 -9.439097296894e+005 -9.479775235374e+005 -9.479775206738e+005 -9.479775199867e+005 -9.479775181462e+005 -9.479775182414e+005 -9.479775179758e+005 -9.479775182400e+005 -9.479775169173e+005 -9.479775161958e+005 -9.519042536294e+005 -9.519042526951e+005 -9.519042516621e+005 -9.519042502928e+005 -9.519042496931e+005 -9.519042488090e+005 -9.519042489163e+005 -9.519042475240e+005 -9.519042480468e+005 -9.556991233902e+005 -9.556991232393e+005 -9.556991210696e+005 -9.556991223654e+005 -9.556991200640e+005 -9.556991196323e+005 -9.556991193526e+005 -9.556991182107e+005 -9.556991171163e+005 -9.593712622804e+005 -9.593712612893e+005 -9.593712622238e+005 -9.593712599469e+005 -9.593712596223e+005 -9.593712584697e+005 -9.593712582422e+005 -9.593712580479e+005 -9.593712569743e+005 -9.629297359791e+005 -9.629297375572e+005 -9.629297369202e+005 -9.629297367407e+005 -9.629297353090e+005 -9.629297348791e+005 -9.629297340230e+005 -9.629297326282e+005 -9.629297319534e+005 -9.663835579335e+005 -9.663835598132e+005 -9.663835605438e+005 -9.663835590789e+005 -9.663835574685e+005 -9.663835575713e+005 -9.663835559998e+005 -9.663835546502e+005 -9.663835544933e+005 -9.697416816687e+005 -9.697416840053e+005 -9.697416838587e+005 -9.697416838248e+005 -9.697416828531e+005 -9.697416810787e+005 -9.697416798886e+005 -9.697416795934e+005 -9.697416789174e+005 -9.730130169718e+005 -9.730130150299e+005 -9.730130158921e+005 -9.730130158267e+005 -9.730130155120e+005 -9.730130129520e+005 -9.730130119289e+005 -9.730130127279e+005 -9.730130123976e+005 -9.762064178268e+005 -9.762064172605e+005 -9.762064170237e+005 -9.762064169274e+005 -9.762064159585e+005 -9.762064137219e+005 -9.762064143670e+005 -9.762064137357e+005 -9.762064140667e+005 -9.793307078166e+005 -9.793307070391e+005 -9.793307069908e+005 -9.793307055614e+005 -9.793307054097e+005 -9.793307043654e+005 -9.793307040873e+005 -9.793307034971e+005 -9.793307042056e+005 -9.823946684680e+005 -9.823946675672e+005 -9.823946679378e+005 -9.823946675705e+005 -9.823946664356e+005 -9.823946663165e+005 -9.823946656964e+005 -9.823946656266e+005 -9.823946644332e+005 -9.854070507768e+005 -9.854070514476e+005 -9.854070522230e+005 -9.854070517624e+005 -9.854070510262e+005 -9.854070513267e+005 -9.854070506773e+005 -9.854070507114e+005 -9.854070504382e+005 -9.883765825716e+005 -9.883765833423e+005 -9.883765838857e+005 -9.883765833010e+005 -9.883765832555e+005 -9.883765834776e+005 -9.883765826619e+005 -9.883765831933e+005 -9.883765832633e+005 -9.913119652625e+005 -9.913119653764e+005 -9.913119657200e+005 -9.913119658455e+005 -9.913119647025e+005 -9.913119645421e+005 -9.913119648465e+005 -9.913119651122e+005 -9.913119649548e+005 -9.942218809578e+005 -9.942218817801e+005 -9.942218824120e+005 -9.942218823393e+005 -9.942218820348e+005 -9.942218813564e+005 -9.942218813563e+005 -9.942218815265e+005 -9.942218816386e+005 -9.971150050576e+005 -9.971150054896e+005 -9.971150057414e+005 -9.971150055913e+005 -9.971150056845e+005 -9.971150052254e+005 -9.971150052250e+005 -9.971150053889e+005 -9.971150052310e+005 -1.000000000000e+006 -1.000000000000e+006 -1.000000000000e+006 -1.000000000000e+006 -1.000000000000e+006 -1.000000000000e+006 -1.000000000000e+006 -1.000000000000e+006 -1.000000000000e+006 
        </DataArray>
        <DataArray type="Float64" Name="NONWET_PRESSURE" format="ascii">