<?xml version="1.0"?>
<VTKFile type="UnstructuredGrid" version="0.1" byte_order="LittleEndian">
  <UnstructuredGrid>
    <Piece NumberOfPoints="909" NumberOfCells="800">
      <Points>
        <DataArray type="Float64" NumberOfComponents="3" format="ascii">
          0.000000000000e+000 0.000000000000e+000 0.000000000000e+000
          2.000000000000e+000 0.000000000000e+000 0.000000000000e+000
          2.000000000000e+000 2.500000000000e+000 0.000000000000e+000
          0.000000000000e+000 2.500000000000e+000 0.000000000000e+000
          2.000000000000e+000 5.000000000000e+000 0.000000000000e+000
          0.000000000000e+000 5.000000000000e+000 0.000000000000e+000
          2.000000000000e+000 7.500000000000e+000 0.000000000000e+000
          0.000000000000e+000 7.500000000000e+000 0.000000000000e+000
          2.000000000000e+000 1.000000000000e+001 0.000000000000e+000
          0.000000000000e+000 1.000000000000e+001 0.000000000000e+000
          2.000000000000e+000 1.250000000000e+001 0.000000000000e+000
          0.000000000000e+000 1.250000000000e+001 0.000000000000e+000
          2.000000000000e+000 1.500000000000e+001 0.000000000000e+000
          0.000000000000e+000 1.500000000000e+001 0.000000000000e+000
          2.000000000000e+000 1.750000000000e+001 0.000000000000e+000
          0.000000000000e+000 1.750000000000e+001 0.000000000000e+000
          2.000000000000e+000 2.000000000000e+001 0.000000000000e+000
          0.000000000000e+000 2.000000000000e+001 0.000000000000e+000
          4.000000000000e+000 0.000000000000e+000 0.000000000000e+000
          4.000000000000e+000 2.500000000000e+000 0.000000000000e+000
          4.000000000000e+000 5.000000000000e+000 0.000000000000e+000
          4.000000000000e+000 7.500000000000e+000 0.000000000000e+000
          4.000000000000e+000 1.000000000000e+001 0.000000000000e+000
          4.000000000000e+000 1.250000000000e+001 0.000000000000e+000
          4.000000000000e+000 1.500000000000e+001 0.000000000000e+000
          4.000000000000e+000 1.750000000000e+001 0.000000000000e+000
          4.000000000000e+000 2.000000000000e+001 0.000000000000e+000
          6.000000000000e+000 0.000000000000e+000 0.000000000000e+000
          6.000000000000e+000 2.500000000000e+000 0.000000000000e+000
          6.000000000000e+000 5.000000000000e+000 0.000000000000e+000
          6.000000000000e+000 7.500000000000e+000 0.000000000000e+000
          6.000000000000e+000 1.000000000000e+001 0.000000000000e+000
          6.000000000000e+000 1.250000000000e+001 0.000000000000e+000
          6.000000000000e+000 1.500000000000e+001 0.000000000000e+000
          6.000000000000e+000 1.750000000000e+001 0.000000000000e+000
          6.000000000000e+000 2.000000000000e+001 0.000000000000e+000
          8.000000000000e+000 0.000000000000e+000 0.000000000000e+000
          8.000000000000e+000 2.500000000000e+000 0.000000000000e+000
          8.000000000000e+000 5.000000000000e+000 0.000000000000e+000
          8.000000000000e+000 7.500000000000e+000 0.000000000000e+000
          8.000000000000e+000 1.000000000000e+001 0.000000000000e+000
          8.000000000000e+000 1.250000000000e+001 0.000000000000e+000
          8.000000000000e+000 1.500000000000e+001 0.000000000000e+000
          8.000000000000e+000 1.750000000000e+001 0.000000000000e+000
          8.000000000000e+000 2.000000000000e+001 0.000000000000e+000
          1.000000000000e+001 0.000000000000e+000 0.000000000000e+000
          1.000000000000e+001 2.500000000000e+000 0.000000000000e+000
          1.000000000000e+001 5.000000000000e+000 0.000000000000e+000
          1.000000000000e+001 7.500000000000e+000 0.000000000000e+000
          1.000000000000e+001 1.000000000000e+001 0.000000000000e+000
          1.000000000000e+001 1.250000000000e+001 0.000000000000e+000
          1.000000000000e+001 1.500000000000e+001 0.000000000000e+000
          1.000000000000e+001 1.750000000000e+001 0.000000000000e+000
          1.000000000000e+001 2.000000000000e+001 0.000000000000e+000
          1.200000000000e+001 0.000000000000e+000 0.000000000000e+000
          1.200000000000e+001 2.500000000000e+000 0.000000000000e+000
          1.200000000000e+001 5.000000000000e+000 0.000000000000e+000
          1.200000000000e+001 7.500000000000e+000 0.000000000000e+000
          1.200000000000e+001 1.000000000000e+001 0.000000000000e+000
          1.200000000000e+001 1.250000000000e+001 0.000000000000e+000
          1.200000000000e+001 1.500000000000e+001 0.000000000000e+000
          1.200000000000e+001 1.750000000000e+001 0.000000000000e+000
          1.200000000000e+001 2.000000000000e+001 0.000000000000e+000
          1.400000000000e+001 0.000000000000e+000 0.000000000000e+000
          1.400000000000e+001 2.500000000000e+000 0.000000000000e+000
          1.400000000000e+001 5.000000000000e+000 0.000000000000e+000
          1.400000000000e+001 7.500000000000e+000 0.000000000000e+000
          1.400000000000e+001 1.000000000000e+001 0.000000000000e+000
          1.400000000000e+001 1.250000000000e+001 0.000000000000e+000
          1.400000000000e+001 1.500000000000e+001 0.000000000000e+000
          1.400000000000e+001 1.750000000000e+001 0.000000000000e+000
          1.400000000000e+001 2.000000000000e+001 0.000000000000e+000
          1.600000000000e+001 0.000000000000e+000 0.000000000000e+000
          1.600000000000e+001 2.500000000000e+000 0.000000000000e+000
          1.600000000000e+001 5.000000000000e+000 0.000000000000e+000
          1.600000000000e+001 7.500000000000e+000 0.000000000000e+000
          1.600000000000e+001 1.000000000000e+001 0.000000000000e+000
          1.600000000000e+001 1.250000000000e+001 0.000000000000e+000
          1.600000000000e+001 1.500000000000e+001 0.000000000000e+000
          1.600000000000e+001 1.750000000000e+001 0.000000000000e+000
          1.600000000000e+001 2.000000000000e+001 0.000000000000e+000
          1.800000000000e+001 0.000000000000e+000 0.000000000000e+000
          1.800000000000e+001 2.500000000000e+000 0.000000000000e+000
          1.800000000000e+001 5.000000000000e+000 0.000000000000e+000
          1.800000000000e+001 7.500000000000e+000 0.000000000000e+000
          1.800000000000e+001 1.000000000000e+001 0.000000000000e+000
          1.800000000000e+001 1.250000000000e+001 0.000000000000e+000
          1.800000000000e+001 1.500000000000e+001 0.000000000000e+000
          1.800000000000e+001 1.750000000000e+001 0.000000000000e+000
          1.800000000000e+001 2.000000000000e+001 0.000000000000e+000
          2.000000000000e+001 0.000000000000e+000 0.000000000000e+000
          2.000000000000e+001 2.500000000000e+000 0.000000000000e+000
          2.000000000000e+001 5.000000000000e+000 0.000000000000e+000
          2.000000000000e+001 7.500000000000e+000 0.000000000000e+000
          2.000000000000e+001 1.000000000000e+001 0.000000000000e+000
          2.000000000000e+001 1.250000000000e+001 0.000000000000e+000
          2.000000000000e+001 1.500000000000e+001 0.000000000000e+000
          2.000000000000e+001 1.750000000000e+001 0.000000000000e+000
          2.000000000000e+001 2.000000000000e+001 0.000000000000e+000
          2.200000000000e+001 0.000000000000e+000 0.000000000000e+000
          2.200000000000e+001 2.500000000000e+000 0.000000000000e+000
          2.200000000000e+001 5.000000000000e+000 0.000000000000e+000
          2.200000000000e+001 7.500000000000e+000 0.000000000000e+000
          2.200000000000e+001 1.000000000000e+001 0.000000000000e+000
          2.200000000000e+001 1.250000000000e+001 0.000000000000e+000
          2.200000000000e+001 1.500000000000e+001 0.000000000000e+000
          2.200000000000e+001 1.750000000000e+001 0.000000000000e+000
          2.200000000000e+001 2.000000000000e+001 0.000000000000e+000
          2.400000000000e+001 0.000000000000e+000 0.000000000000e+000
          2.400000000000e+001 2.500000000000e+000 0.000000000000e+000
          2.400000000000e+001 5.000000000000e+000 0.000000000000e+000
          2.400000000000e+001 7.500000000000e+000 0.000000000000e+000
          2.400000000000e+001 1.000000000000e+001 0.000000000000e+000
          2.400000000000e+001 1.250000000000e+001 0.000000000000e+000
          2.400000000000e+001 1.500000000000e+001 0.000000000000e+000
          2.400000000000e+001 1.750000000000e+001 0.000000000000e+000
          2.400000000000e+001 2.000000000000e+001 0.000000000000e+000
          2.600000000000e+001 0.000000000000e+000 0.000000000000e+000
          2.600000000000e+001 2.500000000000e+000 0.000000000000e+000
          2.600000000000e+001 5.000000000000e+000 0.000000000000e+000
          2.600000000000e+001 7.500000000000e+000 0.000000000000e+000
          2.600000000000e+001 1.000000000000e+001 0.000000000000e+000
          2.600000000000e+001 1.250000000000e+001 0.000000000000e+000
          2.600000000000e+001 1.500000000000e+001 0.000000000000e+000
          2.600000000000e+001 1.750000000000e+001 0.000000000000e+000
          2.600000000000e+001 2.000000000000e+001 0.000000000000e+000
          2.800000000000e+001 0.000000000000e+000 0.000000000000e+000
          2.800000000000e+001 2.500000000000e+000 0.000000000000e+000
          2.800000000000e+001 5.000000000000e+000 0.000000000000e+000
          2.800000000000e+001 7.500000000000e+000 0.000000000000e+000
          2.800000000000e+001 1.000000000000e+001 0.000000000000e+000
          2.800000000000e+001 1.250000000000e+001 0.000000000000e+000
          2.800000000000e+001 1.500000000000e+001 0.000000000000e+000
          2.800000000000e+001 1.750000000000e+001 0.000000000000e+000
          2.800000000000e+001 2.000000000000e+001 0.000000000000e+000
          3.000000000000e+001 0.000000000000e+000 0.000000000000e+000
          3.000000000000e+001 2.500000000000e+000 0.000000000000e+000
          3.000000000000e+001 5.000000000000e+000 0.000000000000e+000
          3.000000000000e+001 7.500000000000e+000 0.000000000000e+000
[...]
      <PointData Scalars="CAPILLARY_PRESSURE">
        <DataArray type="Float64" Name="CAPILLARY_PRESSURE" format="ascii">
          2.240976036856e+005 2.197973397477e+005 2.197973397477e+005 2.240976036856e+005 2.197973397477e+005 2.240976036856e+005 2.197973397477e+005 2.240976036856e+005 2.197973397477e+005 2.240976036856e+005 2.197973397477e+005 2.240976036856e+005 2.197973397477e+005 2.240976036856e+005 2.197973397477e+005 2.240976036856e+005 2.197973397477e+005 2.240976036856e+005 2.154517955676e+005 2.154517955676e+005 2.154517955676e+005 2.154517955676e+005 2.154517955676e+005 2.154517955676e+005 2.154517955676e+005 2.154517955676e+005 2.154517955676e+005 2.110555287641e+005 2.110555287641e+005 2.110555287641e+005 2.110555287641e+005 2.110555287641e+005 2.110555287641e+005 2.110555287641e+005 2.110555287641e+005 2.110555287641e+005 2.066018021917e+005 2.066018021917e+005 2.066018021917e+005 2.066018021917e+005 2.066018021917e+005 2.066018021917e+005 2.066018021917e+005 2.066018021917e+005 2.066018021917e+005 2.020833195388e+005 2.020833195388e+005 2.020833195388e+005 2.020833195388e+005 2.020833195388e+005 2.020833195388e+005 2.020833195388e+005 2.020833195388e+005 2.020833195388e+005 1.974918517101e+005 1.974918517101e+005 1.974918517101e+005 1.974918517101e+005 1.974918517101e+005 1.974918517101e+005 1.974918517101e+005 1.974918517101e+005 1.974918517101e+005 1.928180729657e+005 1.928180729657e+005 1.928180729657e+005 1.928180729657e+005 1.928180729657e+005 1.928180729657e+005 1.928180729657e+005 1.928180729657e+005 1.928180729657e+005 1.880513773358e+005 1.880513773358e+005 1.880513773358e+005 1.880513773358e+005 1.880513773358e+005 1.880513773358e+005 1.880513773358e+005 1.880513773358e+005 1.880513773358e+005 1.831796286203e+005 1.831796286203e+005 1.831796286203e+005 1.831796286203e+005 1.831796286203e+005 1.831796286203e+005 1.831796286203e+005 1.831796286203e+005 1.831796286203e+005 1.781888459229e+005 1.781888459229e+005 1.781888459229e+005 1.781888459229e+005 1.781888459229e+005 1.781888459229e+005 1.781888459229e+005 1.781888459229e+005 1.781888459229e+005 1.730628040911e+005 1.730628040911e+005 1.730628040911e+005 1.730628040911e+005 1.730628040911e+005 1.730628040911e+005 1.730628040911e+005 1.730628040912e+005 1.730628040912e+005 1.677825178080e+005 1.677825178080e+005 1.677825178080e+005 1.677825178080e+005 1.677825178081e+005 1.677825178081e+005 1.677825178081e+005 1.677825178081e+005 1.677825178081e+005 1.623255645258e+005 1.623255645258e+005 1.623255645258e+005 1.623255645258e+005 1.623255645259e+005 1.623255645259e+005 1.623255645260e+005 1.623255645260e+005 1.623255645260e+005 1.566651818125e+005 1.566651818125e+005 1.566651818125e+005 1.566651818126e+005 1.566651818127e+005 1.566651818127e+005 1.566651818128e+005 1.566651818129e+005 1.566651818129e+005 1.507690441830e+005 1.507690441830e+005 1.507690441831e+005 1.507690441832e+005 1.507690441833e+005 1.507690441834e+005 1.507690441835e+005 1.507690441836e+005 1.507690441836e+005 1.445975750658e+005 1.445975750658e+005 1.445975750659e+005 1.445975750660e+005 1.445975750662e+005 1.445975750663e+005 1.445975750665e+005 1.445975750665e+005 1.445975750666e+005 1.381015650674e+005 1.381015650677e+005 1.381015650677e+005 1.381015650679e+005 1.381015650681e+005 1.381015650683e+005 1.381015650684e+005 1.381015650686e+005 1.381015650685e+005 1.312187102270e+005 1.312187102263e+005 1.312187102267e+005 1.312187102269e+005 1.312187102271e+005 1.312187102274e+005 1.312187102275e+005 1.312187102273e+005 1.312187102274e+005 1.238684012222e+005 1.238684012247e+005 1.238684012244e+005 1.238684012241e+005 1.238684012242e+005 1.238684012239e+005 1.238684012240e+005 1.238684012246e+005 1.238684012249e+005 1.159436718776e+005 1.159436718681e+005 1.159436718679e+005 1.159436718708e+005 1.159436718708e+005 1.159436718732e+005 1.159436718718e+005 1.159436718676e+005 1.159436718644e+005 1.072984056140e+005 1.072984056498e+005 1.072984056529e+005 1.072984056295e+005 1.072984056176e+005 1.072984056007e+005 1.072984056088e+005 1.072984056388e+005 1.072984056590e+005 9.772302891682e+004 9.772302878381e+004 9.772302874761e+004 9.772302883239e+004 9.772302887815e+004 9.772302893979e+004 9.772302890288e+004 9.772302876401e+004 9.772302867615e+004 8.690984801848e+004 8.690984840612e+004 8.690984850885e+004 8.690984823829e+004 8.690984810345e+004 8.690984790392e+004 8.690984797428e+004 8.690984837333e+004 8.690984862427e+004 7.436146840766e+004 7.436146742739e+004 7.436146703660e+004 7.436146741110e+004 7.436146751867e+004 7.436146796879e+004 7.436146787781e+004 7.436146703490e+004 7.436146651009e+004 5.924582917724e+004 5.924583127691e+004 5.924583226250e+004 5.924583194327e+004 5.924583162254e+004 5.924583036596e+004 5.924583056983e+004 5.924583236779e+004 5.924583347199e+004 4.001243273302e+004 4.001242835819e+004 4.001242594882e+004 4.001242496718e+004 4.001242542447e+004 4.001242835642e+004 4.001242787007e+004 4.001242456024e+004 4.001242242657e+004 1.409044431410e+004 1.409044979394e+004 1.409045153059e+004 1.409045792596e+004 1.409045651542e+004 1.409045091441e+004 1.409045281202e+004 1.409045486876e+004 1.409045781857e+004 -1.810358705681e+004 -1.810358297546e+004 -1.810357091950e+004 -1.810357222585e+004 -1.810357060760e+004 -1.810357460150e+004 -1.810357001477e+004 -1.810357198756e+004 -1.810356769240e+004 -5.009156883819e+004 -5.009156596283e+004 -5.009156228959e+004 -5.009156540838e+004 -5.009155857840e+004 -5.009156773265e+004 -5.009156009704e+004 -5.009155847266e+004 -5.009155976675e+004 -8.125478040265e+004 -8.125479585752e+004 -8.125478499272e+004 -8.125478797017e+004 -8.125479188741e+004 -8.125478790728e+004 -8.125478502815e+004 -8.125478139144e+004 -8.125478623616e+004 -1.116082988026e+005 -1.116083098833e+005 -1.116083144828e+005 -1.116083166803e+005 -1.116083281384e+005 -1.116083138851e+005 -1.116083110424e+005 -1.116083022209e+005 -1.116083054297e+005 -1.411675683710e+005 -1.411675837996e+005 -1.411675766972e+005 -1.411675893731e+005 -1.411675951567e+005 -1.411675988590e+005 -1.411675888264e+005 -1.411675823302e+005 -1.411675745148e+005 -1.699480501506e+005 -1.699480611273e+005 -1.699480645942e+005 -1.699480698419e+005 -1.699480730634e+005 -1.699480788707e+005 -1.699480639548e+005 -1.699480493461e+005 -1.699480527047e+005 -1.979649205649e+005 -1.979649276787e+005 -1.979649315047e+005 -1.979649398641e+005 -1.979649457457e+005 -1.979649283218e+005 -1.979649214640e+005 -1.979649202172e+005 -1.979649081388e+005 -2.252328822847e+005 -2.252328866394e+005 -2.252328748580e+005 -2.252328897994e+005 -2.252328912091e+005 -2.252328833776e+005 -2.252328654863e+005 -2.252328630236e+005 -2.252328704257e+005 -2.517662555590e+005 -2.517662402473e+005 -2.517662453513e+005 -2.517662483623e+005 -2.517662523308e+005 -2.517662330392e+005 -2.517662348827e+005 -2.517662224162e+005 -2.517662263844e+005 -2.775791399851e+005 -2.775791452923e+005 -2.775791486891e+005 -2.775791557255e+005 -2.775791510307e+005 -2.775791365961e+005 -2.775791347505e+005 -2.775791303595e+005 -2.775791225535e+005 -3.026856322240e+005 -3.026856381426e+005 -3.026856403097e+005 -3.026856444015e+005 -3.026856400244e+005 -3.026856250233e+005 -3.026856197264e+005 -3.026856166460e+005 -3.026856129488e+005 -3.270997217851e+005 -3.270997154266e+005 -3.270997249472e+005 -3.270997227896e+005 -3.270997147672e+005 -3.270997057599e+005 -3.270996905200e+005 -3.270996971419e+005 -3.270996911935e+005 -3.508353316592e+005 -3.508353246847e+005 -3.508353334328e+005 -3.508353309293e+005 -3.508353232616e+005 -3.508353133370e+005 -3.508353067281e+005 -3.508352972718e+005 -3.508353005395e+005 -3.739063376764e+005 -3.739063388651e+005 -3.739063435688e+005 -3.739063407424e+005 -3.739063371061e+005 -3.739063201130e+005 -3.739063129485e+005 -3.739063143470e+005 -3.739063050850e+005 -3.963265203002e+005 -3.963265287105e+005 -3.963265225946e+005 -3.963265178786e+005 -3.963265157157e+005 -3.963265045536e+005 -3.963264936324e+005 -3.963264895201e+005 -3.963264872386e+005 -4.181095560085e+005 -4.181095405995e+005 -4.181095440182e+005 -4.181095345012e+005 -4.181095340938e+005 -4.181095270315e+005 -4.181095281857e+005 -4.181095071632e+005 -4.181095137615e+005 -4.392689734112e+005 -4.392689782028e+005 -4.392689727794e+005 -4.392689637569e+005 -4.392689616181e+005 -4.392689613883e+005 -4.392689502662e+005 -4.392689444957e+005 -4.392689409693e+005 -4.598182595913e+005 -4.598182638075e+005 -4.598182669660e+005 -4.598182522706e+005 -4.598182443513e+005 -4.598182449435e+005 -4.598182374822e+005 -4.598182336728e+005 -4.598182251889e+005 -4.797707429325e+005 -4.797707452747e+005 -4.797707418916e+005 -4.797707362956e+005 -4.797707286928e+005 -4.797707196116e+005 -4.797707138576e+005 -4.797707110065e+005 -4.797707128599e+005 -4.991396400189e+005 -4.991396338675e+005 -4.991396308097e+005 -4.991396223488e+005 -4.991396164420e+005 -4.991396059137e+005 -4.991396023954e+005 -4.991395966694e+005 -4.991395943238e+005 -5.179380271213e+005 -5.179380240522e+005 -5.179380174073e+005 -5.179380110132e+005 -5.179379999194e+005 -5.179379930317e+005 -5.179379915434e+005 -5.179379850403e+005 -5.179379816803e+005 -5.361788897027e+005 -5.361788877357e+005 -5.361788816945e+005 -5.361788729201e+005 -5.361788653262e+005 -5.361788599104e+005 -5.361788529219e+005 -5.361788500107e+005 -5.361788443654e+005 -5.538750844872e+005 -5.538750797262e+005 -5.538750770713e+005 -5.538750715124e+005 -5.538750650884e+005 -5.538750551345e+005 -5.538750483759e+005 -5.538750437017e+005 -5.538750440561e+005 -5.710393514738e+005 -5.710393492565e+005 -5.710393461791e+005 -5.710393414786e+005 -5.710393343168e+005 -5.710393239346e+005 -5.710393196012e+005 -5.710393137959e+005 -5.710393127269e+005 -5.876843148320e+005 -5.876843139826e+005 -5.876843114917e+005 -5.876843069563e+005 -5.876843016967e+005 -5.876842947798e+005 -5.876842909400e+005 -5.876842831934e+005 -5.876842870578e+005 -6.038224874989e+005 -6.038224830185e+005 -6.038224824696e+005 -6.038224809194e+005 -6.038224793700e+005 -6.038224718394e+005 -6.038224679431e+005 -6.038224651360e+005 -6.038224640311e+005 -6.194662658068e+005 -6.194662732631e+005 -6.194662698763e+005 -6.194662667453e+005 -6.194662660740e+005 -6.194662643595e+005 -6.194662584951e+005 -6.194662541211e+005 -6.194662522337e+005 -6.346279633668e+005 -6.346279658363e+005 -6.346279649091e+005 -6.346279593491e+005 -6.346279570161e+005 -6.346279553088e+005 -6.346279515480e+005 -6.346279519405e+005 -6.346279487473e+005 -6.493197506443e+005 -6.493197499225e+005 -6.493197483234e+005 -6.493197456024e+005 -6.493197440260e+005 -6.493197431564e+005 -6.493197392327e+005 -6.493197429943e+005 -6.493197395449e+005 -6.635537121978e+005 -6.635537128943e+005 -6.635537109730e+005 -6.635537072448e+005 -6.635537062297e+005 -6.635537069015e+005 -6.635537034753e+005 -6.635537041528e+005 -6.635537020278e+005 -6.773418319055e+005 -6.773418322709e+005 -6.773418302941e+005 -6.773418297017e+005 -6.773418275647e+005 -6.773418284243e+005 -6.773418269149e+005 -6.773418258359e+005 -6.773418279197e+005 -6.906959918826e+005 -6.906959932417e+005 -6.906959946607e+005 -6.906959944040e+005 -6.906959962983e+005 -6.906959922927e+005 -6.906959913433e+005 -6.906959923867e+005 -6.906959941274e+005 -7.036279866122e+005 -7.036279873290e+005 -7.036279910736e+005 -7.036279911787e+005 -7.036279898567e+005 -7.036279861648e+005 -7.036279875632e+005 -7.036279887935e+005 -7.036279899239e+005 -7.161495069520e+005 -7.161495103405e+005 -7.161495105552e+005 -7.161495099383e+005 -7.161495069258e+005 -7.161495077326e+005 -7.161495096845e+005 -7.161495070102e+005 -7.161495078625e+005 -7.282721486452e+005 -7.282721489788e+005 -7.282721488556e+005 -7.282721483347e+005 -7.282721474024e+005 -7.282721456407e+005 -7.282721481301e+005 -7.282721464607e+005 -7.282721461569e+005 -7.400074172058e+005 -7.400074141863e+005 -7.400074158627e+005 -7.400074148532e+005 -7.400074120168e+005 -7.400074132484e+005 -7.400074148459e+005 -7.400074142260e+005 -7.400074140706e+005 -7.513667244607e+005 -7.513667257725e+005 -7.513667258325e+005 -7.513667265241e+005 -7.513667229368e+005 -7.513667229138e+005 -7.513667261765e+005 -7.513667255570e+005 -7.513667240333e+005 -7.623614108125e+005 -7.623614118874e+005 -7.623614111863e+005 -7.623614099284e+005 -7.623614083615e+005 -7.623614093147e+005 -7.623614121695e+005 -7.623614117776e+005 -7.623614092885e+005 -7.730027099401e+005 -7.730027109143e+005 -7.730027107063e+005 -7.730027112899e+005 -7.730027083621e+005 -7.730027097684e+005 -7.730027118685e+005 -7.730027108733e+005 -7.730027092023e+005 -7.833017825052e+005 -7.833017835000e+005 -7.833017847907e+005 -7.833017821463e+005 -7.833017823678e+005 -7.833017834622e+005 -7.833017837773e+005 -7.833017847665e+005 -7.833017813494e+005 -7.932697020020e+005 -7.932697028989e+005 -7.932697024611e+005 -7.932697004771e+005 -7.932697024883e+005 -7.932697020273e+005 -7.932697011596e+005 -7.932697014178e+005 -7.932697008049e+005 -8.029174630851e+005 -8.029174623134e+005 -8.029174618818e+005 -8.029174615122e+005 -8.029174586166e+005 -8.029174587301e+005 -8.029174612418e+005 -8.029174599151e+005 -8.029174596822e+005 -8.122559751771e+005 -8.122559726944e+005 -8.122559724625e+005 -8.122559706540e+005 -8.122559689404e+005 -8.122559693128e+005 -8.122559717238e+005 -8.122559705101e+005 -8.122559714681e+005 -8.212960699785e+005 -8.212960692200e+005 -8.212960692065e+005 -8.212960683759e+005 -8.212960675969e+005 -8.212960674982e+005 -8.212960687144e+005 -8.212960690926e+005 -8.212960688446e+005 -8.300485078176e+005 -8.300485100041e+005 -8.300485105035e+005 -8.300485112138e+005 -8.300485097940e+005 -8.300485105511e+005 -8.300485118485e+005 -8.300485105553e+005 -8.300485097650e+005 -8.385239787192e+005 -8.385239766186e+005 -8.385239791914e+005 -8.385239793404e+005 -8.385239780458e+005 -8.385239804000e+005 -8.385239789875e+005 -8.385239792177e+005 -8.385239786779e+005 -8.467330829029e+005 -8.467330815394e+005 -8.467330813631e+005 -8.467330811107e+005 -8.467330807456e+005 -8.467330825857e+005 -8.467330822429e+005 -8.467330827580e+005 -8.467330808515e+005 -8.546863529263e+005 -8.546863562548e+005 -8.546863567074e+005 -8.546863564959e+005 -8.546863558706e+005 -8.546863574753e+005 -8.546863571661e+005 -8.546863573238e+005 -8.546863579157e+005 -8.623942689704e+005 -8.623942723902e+005 -8.623942714645e+005 -8.623942714961e+005 -8.623942744780e+005 -8.623942725366e+005 -8.623942738957e+005 -8.623942739245e+005 -8.623942742167e+005 -8.698672294135e+005 -8.698672309570e+005 -8.698672313919e+005 -8.698672303457e+005 -8.698672317006e+005 -8.698672321387e+005 -8.698672332818e+005 -8.698672318300e+005 -8.698672320654e+005 -8.771155693951e+005 -8.771155682633e+005 -8.771155684564e+005 -8.771155697607e+005 -8.771155683905e+005 -8.771155692140e+005 -8.771155693187e+005 -8.771155688742e+005 -8.771155684429e+005 -8.841495573009e+005 -8.841495584599e+005 -8.841495568691e+005 -8.841495574770e+005 -8.841495572963e+005 -8.841495580581e+005 -8.841495581395e+005 -8.841495570571e+005 -8.841495582879e+005 -8.909794115570e+005 -8.909794086308e+005 -8.909794079628e+005 -8.909794094368e+005 -8.909794085568e+005 -8.909794078033e+005 -8.909794084182e+005 -8.909794078815e+005 -8.909794092647e+005 -8.976152784709e+005 -8.976152754472e+005 -8.976152739700e+005 -8.976152753216e+005 -8.976152754594e+005 -8.976152757736e+005 -8.976152755964e+005 -8.976152760752e+005 -8.976152739976e+005 -9.040672566497e+005 -9.040672555980e+005 -9.040672542786e+005 -9.040672551396e+005 -9.040672557197e+005 -9.040672555464e+005 -9.040672557179e+005 -9.040672544723e+005 -9.040672544616e+005 -9.103453938540e+005 -9.103453919260e+005 -9.103453907392e+005 -9.103453910850e+005 -9.103453906112e+005 -9.103453891293e+005 -9.103453908930e+005 -9.103453903285e+005 -9.103453897987e+005 -9.164596783771e+005 -9.164596755135e+005 -9.164596748264e+005 -9.164596729858e+005 -9.164596730811e+005 -9.164596728155e+005 -9.164596730797e+005 -9.164596717570e+005 -9.164596710354e+005 -9.224200497320e+005 -9.224200487976e+005 -9.224200477646e+005 -9.224200463953e+005 -9.224200457957e+005 -9.224200449116e+005 -9.224200450189e+005 -9.224200436265e+005 -9.224200441493e+005 -9.282364079226e+005 -9.282364077717e+005 -9.282364056020e+005 -9.282364068978e+005 -9.282364045963e+005 -9.282364041647e+005 -9.282364038849e+005 -9.282364027431e+005 -9.282364016486e+005 -9.339186054886e+005 -9.339186044975e+005 -9.339186054320e+005 -9.339186031551e+005 -9.339186028304e+005 -9.339186016778e+005 -9.339186014503e+005 -9.339186012560e+005 -9.339186001824e+005 -9.394764524902e+005 -9.394764540683e+005 -9.394764534313e+005 -9.394764532518e+005 -9.394764518201e+005 -9.394764513902e+005 -9.394764505341e+005 -9.394764491393e+005 -9.394764484645e+005 -9.449197268459e+005 -9.449197287256e+005 -9.449197294562e+005 -9.449197279913e+005 -9.449197263810e+005 -9.449197264837e+005 -9.449197249122e+005 -9.449197235626e+005 -9.449197234057e+005 -9.502581653636e+005 -9.502581677002e+005 -9.502581675536e+005 -9.502581675196e+005 -9.502581665480e+005 -9.502581647735e+005 -9.502581635835e+005 -9.502581632882e+005 -9.502581626123e+005 -9.555014785848e+005 -9.555014766430e+005 -9.555014775052e+005 -9.555014774397e+005 -9.555014771250e+005 -9.555014745650e+005 -9.555014735419e+005 -9.555014743409e+005 -9.555014740106e+005 -9.606593373240e+005 -9.606593367576e+005 -9.606593365209e+005 -9.606593364245e+005 -9.606593354557e+005 -9.606593332191e+005 -9.606593338642e+005 -9.606593332329e+005 -9.606593335639e+005 -9.657413966220e+005 -9.657413958445e+005 -9.657413957962e+005 -9.657413943668e+005 -9.657413942151e+005 -9.657413931708e+005 -9.657413928927e+005 -9.657413923025e+005 -9.657413930110e+005 -9.707572825971e+005 -9.707572816963e+005 -9.707572820670e+005 -9.707572816996e+005 -9.707572805647e+005 -9.707572804456e+005 -9.707572798255e+005 -9.707572797557e+005 -9.707572785624e+005 -9.757166024329e+005 -9.757166031037e+005 -9.757166038791e+005 -9.757166034185e+005 -9.757166026824e+005 -9.757166029828e+005 -9.757166023334e+005 -9.757166023675e+005 -9.757166020943e+005 -9.806289501695e+005 -9.806289509403e+005 -9.806289514837e+005 -9.806289508990e+005 -9.806289508534e+005 -9.806289510756e+005 -9.806289502598e+005 -9.806289507912e+005 -9.806289508612e+005 -9.855039018548e+005 -9.855039019687e+005 -9.855039023123e+005 -9.855039024378e+005 -9.855039012948e+005 -9.855039011344e+005 -9.855039014388e+005 -9.855039017045e+005 -9.855039015471e+005 -9.903510210162e+005 -9.903510218385e+005 -9.903510224704e+005 -9.903510223977e+005 -9.903510220932e+005 -9.903510214147e+005 -9.903510214147e+005 -9.903510215849e+005 -9.903510216970e+005 -9.951798695767e+005 -9.951798700087e+005 -9.951798702605e+005 -9.951798701104e+005 -9.951798702036e+005 -9.951798697445e+005 -9.951798697441e+005 -9.951798699080e+005 -9.951798697501e+005 -1.000000000000e+006 -1.000000000000e+006 -1.000000000000e+006 -1.000000000000e+006 -1.000000000000e+006 -1.000000000000e+006 -1.000000000000e+006 -1.000000000000e+006 -1.000000000000e+006 
        </DataArray>
        <DataArray type="Float64" Name="NONWET_PRESSURE" format="ascii">