<?xml version="1.0"?>
<VTKFile type="UnstructuredGrid" version="0.1" byte_order="LittleEndian">
  <UnstructuredGrid>
    <Piece NumberOfPoints="909" NumberOfCells="800">
      <Points>
        <DataArray type="Float64" NumberOfComponents="3" format="ascii">
          0.000000000000e+000 0.000000000000e+000 0.000000000000e+000
          2.000000000000e+000 0.000000000000e+000 0.000000000000e+000
          2.000000000000e+000 2.500000000000e+000 0.000000000000e+000
          0.000000000000e+000 2.500000000000e+000 0.000000000000e+000
          2.000000000000e+000 5.000000000000e+000 0.000000000000e+000
          0.000000000000e+000 5.000000000000e+000 0.000000000000e+000
          2.000000000000e+000 7.500000000000e+000 0.000000000000e+000
          0.000000000000e+000 7.500000000000e+000 0.000000000000e+000
          2.000000000000e+000 1.000000000000e+001 0.000000000000e+000
          0.000000000000e+000 1.000000000000e+001 0.000000000000e+000
          2.000000000000e+000 1.250000000000e+001 0.000000000000e+000
          0.000000000000e+000 1.250000000000e+001 0.000000000000e+000
          2.000000000000e+000 1.500000000000e+001 0.000000000000e+000
          0.000000000000e+000 1.500000000000e+001 0.000000000000e+000
          2.000000000000e+000 1.750000000000e+001 0.000000000000e+000
          0.000000000000e+000 1.750000000000e+001 0.000000000000e+000
          2.000000000000e+000 2.000000000000e+001 0.000000000000e+000
          0.000000000000e+000 2.000000000000e+001 0.000000000000e+000
          4.000000000000e+000 0.000000000000e+000 0.000000000000e+000
          4.000000000000e+000 2.500000000000e+000 0.000000000000e+000
          4.000000000000e+000 5.000000000000e+000 0.000000000000e+000
          4.000000000000e+000 7.500000000000e+000 0.000000000000e+000
          4.000000000000e+000 1.000000000000e+001 0.000000000000e+000
          4.000000000000e+000 1.250000000000e+001 0.000000000000e+000
          4.000000000000e+000 1.500000000000e+001 0.000000000000e+000
          4.000000000000e+000 1.750000000000e+001 0.000000000000e+000
          4.000000000000e+000 2.000000000000e+001 0.000000000000e+000
          6.000000000000e+000 0.000000000000e+000 0.000000000000e+000
          6.000000000000e+000 2.500000000000e+000 0.000000000000e+000
          6.000000000000e+000 5.000000000000e+000 0.000000000000e+000
          6.000000000000e+000 7.500000000000e+000 0.000000000000e+000
          6.000000000000e+000 1.000000000000e+001 0.000000000000e+000
          6.000000000000e+000 1.250000000000e+001 0.000000000000e+000
          6.000000000000e+000 1.500000000000e+001 0.000000000000e+000
          6.000000000000e+000 1.750000000000e+001 0.000000000000e+000
          6.000000000000e+000 2.000000000000e+001 0.000000000000e+000
          8.000000000000e+000 0.000000000000e+000 0.000000000000e+000
          8.000000000000e+000 2.500000000000e+000 0.000000000000e+000
          8.000000000000e+000 5.000000000000e+000 0.000000000000e+000
          8.000000000000e+000 7.500000000000e+000 0.000000000000e+000
          8.000000000000e+000 1.000000000000e+001 0.000000000000e+000
          8.000000000000e+000 1.250000000000e+001 0.000000000000e+000
          8.000000000000e+000 1.500000000000e+001 0.000000000000e+000
          8.000000000000e+000 1.750000000000e+001 0.000000000000e+000
          8.000000000000e+000 2.000000000000e+001 0.000000000000e+000
          1.000000000000e+001 0.000000000000e+000 0.000000000000e+000
          1.000000000000e+001 2.500000000000e+000 0.000000000000e+000
          1.000000000000e+001 5.000000000000e+000 0.000000000000e+000
          1.000000000000e+001 7.500000000000e+000 0.000000000000e+000
          1.000000000000e+001 1.000000000000e+001 0.000000000000e+000
          1.000000000000e+001 1.250000000000e+001 0.000000000000e+000
          1.000000000000e+001 1.500000000000e+001 0.000000000000e+000
          1.000000000000e+001 1.750000000000e+001 0.000000000000e+000
          1.000000000000e+001 2.000000000000e+001 0.000000000000e+000
          1.200000000000e+001 0.000000000000e+000 0.000000000000e+000
          1.200000000000e+001 2.500000000000e+000 0.000000000000e+000
          1.200000000000e+001 5.000000000000e+000 0.000000000000e+000
          1.200000000000e+001 7.500000000000e+000 0.000000000000e+000
          1.200000000000e+001 1.000000000000e+001 0.000000000000e+000
          1.200000000000e+001 1.250000000000e+001 0.000000000000e+000
          1.200000000000e+001 1.500000000000e+001 0.000000000000e+000
          1.200000000000e+001 1.750000000000e+001 0.000000000000e+000
          1.200000000000e+001 2.000000000000e+001 0.000000000000e+000
          1.400000000000e+001 0.000000000000e+000 0.000000000000e+000
          1.400000000000e+001 2.500000000000e+000 0.000000000000e+000
          1.400000000000e+001 5.000000000000e+000 0.000000000000e+000
          1.400000000000e+001 7.500000000000e+000 0.000000000000e+000
          1.400000000000e+001 1.000000000000e+001 0.000000000000e+000
          1.400000000000e+001 1.250000000000e+001 0.000000000000e+000
          1.400000000000e+001 1.500000000000e+001 0.000000000000e+000
          1.400000000000e+001 1.750000000000e+001 0.000000000000e+000
          1.400000000000e+001 2.000000000000e+001 0.000000000000e+000
          1.600000000000e+001 0.000000000000e+000 0.000000000000e+000
          1.600000000000e+001 2.500000000000e+000 0.000000000000e+000
          1.600000000000e+001 5.000000000000e+000 0.000000000000e+000
          1.600000000000e+001 7.500000000000e+000 0.000000000000e+000
          1.600000000000e+001 1.000000000000e+001 0.000000000000e+000
          1.600000000000e+001 1.250000000000e+001 0.000000000000e+000
          1.600000000000e+001 1.500000000000e+001 0.000000000000e+000
          1.600000000000e+001 1.750000000000e+001 0.000000000000e+000
          1.600000000000e+001 2.000000000000e+001 0.000000000000e+000
          1.800000000000e+001 0.000000000000e+000 0.000000000000e+000
          1.800000000000e+001 2.500000000000e+000 0.000000000000e+000
          1.800000000000e+001 5.000000000000e+000 0.000000000000e+000
          1.800000000000e+001 7.500000000000e+000 0.000000000000e+000
          1.800000000000e+001 1.000000000000e+001 0.000000000000e+000
          1.800000000000e+001 1.250000000000e+001 0.000000000000e+000
          1.800000000000e+001 1.500000000000e+001 0.000000000000e+000
          1.800000000000e+001 1.750000000000e+001 0.000000000000e+000
          1.800000000000e+001 2.000000000000e+001 0.000000000000e+000
          2.000000000000e+001 0.000000000000e+000 0.000000000000e+000
          2.000000000000e+001 2.500000000000e+000 0.000000000000e+000
          2.000000000000e+001 5.000000000000e+000 0.000000000000e+000
          2.000000000000e+001 7.500000000000e+000 0.000000000000e+000
          2.000000000000e+001 1.000000000000e+001 0.000000000000e+000
          2.000000000000e+001 1.250000000000e+001 0.000000000000e+000
          2.000000000000e+001 1.500000000000e+001 0.000000000000e+000
          2.000000000000e+001 1.750000000000e+001 0.000000000000e+000
          2.000000000000e+001 2.000000000000e+001 0.000000000000e+000
          2.200000000000e+001 0.000000000000e+000 0.000000000000e+000
          2.200000000000e+001 2.500000000000e+000 0.000000000000e+000
          2.200000000000e+001 5.000000000000e+000 0.000000000000e+000
          2.200000000000e+001 7.500000000000e+000 0.000000000000e+000
          2.200000000000e+001 1.000000000000e+001 0.000000000000e+000
          2.200000000000e+001 1.250000000000e+001 0.000000000000e+000
          2.200000000000e+001 1.500000000000e+001 0.000000000000e+000
          2.200000000000e+001 1.750000000000e+001 0.000000000000e+000
          2.200000000000e+001 2.000000000000e+001 0.000000000000e+000
          2.400000000000e+001 0.000000000000e+000 0.000000000000e+000
          2.400000000000e+001 2.500000000000e+000 0.000000000000e+000
          2.400000000000e+001 5.000000000000e+000 0.000000000000e+000
          2.400000000000e+001 7.500000000000e+000 0.000000000000e+000
          2.400000000000e+001 1.000000000000e+001 0.000000000000e+000
          2.400000000000e+001 1.250000000000e+001 0.000000000000e+000
          2.400000000000e+001 1.500000000000e+001 0.000000000000e+000
          2.400000000000e+001 1.750000000000e+001 0.000000000000e+000
          2.400000000000e+001 2.000000000000e+001 0.000000000000e+000
          2.600000000000e+001 0.000000000000e+000 0.000000000000e+000
          2.600000000000e+001 2.500000000000e+000 0.000000000000e+000
          2.600000000000e+001 5.000000000000e+000 0.000000000000e+000
          2.600000000000e+001 7.500000000000e+000 0.000000000000e+000
          2.600000000000e+001 1.000000000000e+001 0.000000000000e+000
          2.600000000000e+001 1.250000000000e+001 0.000000000000e+000
          2.600000000000e+001 1.500000000000e+001 0.000000000000e+000
          2.600000000000e+001 1.750000000000e+001 0.000000000000e+000
          2.600000000000e+001 2.000000000000e+001 0.000000000000e+000
          2.800000000000e+001 0.000000000000e+000 0.000000000000e+000
          2.800000000000e+001 2.500000000000e+000 0.000000000000e+000
          2.800000000000e+001 5.000000000000e+000 0.000000000000e+000
          2.800000000000e+001 7.500000000000e+000 0.000000000000e+000
          2.800000000000e+001 1.000000000000e+001 0.000000000000e+000
          2.800000000000e+001 1.250000000000e+001 0.000000000000e+000
          2.800000000000e+001 1.500000000000e+001 0.000000000000e+000
          2.800000000000e+001 1.750000000000e+001 0.000000000000e+000
          2.800000000000e+001 2.000000000000e+001 0.000000000000e+000
          3.000000000000e+001 0.000000000000e+000 0.000000000000e+000
          3.000000000000e+001 2.500000000000e+000 0.000000000000e+000
          3.000000000000e+001 5.000000000000e+000 0.000000000000e+000
          3.000000000000e+001 7.500000000000e+000 0.000000000000e+000
[...]
      <PointData Scalars="CAPILLARY_PRESSURE">
        <DataArray type="Float64" Name="CAPILLARY_PRESSURE" format="ascii">
          3.875837308735e+005 3.857871817210e+005 3.857871817210e+005 3.875837308735e+005 3.857871817210e+005 3.875837308735e+005 3.857871817210e+005 3.875837308735e+005 3.857871817209e+005 3.875837308735e+005 3.857871817209e+005 3.875837308735e+005 3.857871817210e+005 3.875837308735e+005 3.857871817210e+005 3.875837308735e+005 3.857871817210e+005 3.875837308735e+005 3.839755247834e+005 3.839755247834e+005 3.839755247834e+005 3.839755247834e+005 3.839755247834e+005 3.839755247834e+005 3.839755247834e+005 3.839755247834e+005 3.839755247834e+005 3.821482412877e+005 3.821482412877e+005 3.821482412877e+005 3.821482412877e+005 3.821482412877e+005 3.821482412877e+005 3.821482412877e+005 3.821482412877e+005 3.821482412877e+005 3.803049186486e+005 3.803049186486e+005 3.803049186486e+005 3.803049186486e+005 3.803049186486e+005 3.803049186486e+005 3.803049186486e+005 3.803049186486e+005 3.803049186486e+005 3.784452757685e+005 3.784452757685e+005 3.784452757685e+005 3.784452757685e+005 3.784452757685e+005 3.784452757685e+005 3.784452757685e+005 3.784452757685e+005 3.784452757685e+005 3.765689331282e+005 3.765689331282e+005 3.765689331282e+005 3.765689331282e+005 3.765689331282e+005 3.765689331282e+005 3.765689331282e+005 3.765689331282e+005 3.765689331282e+005 3.746755069310e+005 3.746755069310e+005 3.746755069310e+005 3.746755069310e+005 3.746755069310e+005 3.746755069310e+005 3.746755069310e+005 3.746755069310e+005 3.746755069310e+005 3.727645962797e+005 3.727645962797e+005 3.727645962797e+005 3.727645962797e+005 3.727645962797e+005 3.727645962797e+005 3.727645962797e+005 3.727645962797e+005 3.727645962797e+005 3.708357901195e+005 3.708357901196e+005 3.708357901196e+005 3.708357901196e+005 3.708357901196e+005 3.708357901195e+005 3.708357901196e+005 3.708357901196e+005 3.708357901195e+005 3.688886616251e+005 3.688886616251e+005 3.688886616251e+005 3.688886616251e+005 3.688886616251e+005 3.688886616251e+005 3.688886616251e+005 3.688886616251e+005 3.688886616251e+005 3.669227674990e+005 3.669227674990e+005 3.669227674990e+005 3.669227674990e+005 3.669227674990e+005 3.669227674990e+005 3.669227674990e+005 3.669227674990e+005 3.669227674990e+005 3.649376466822e+005 3.649376466822e+005 3.649376466822e+005 3.649376466822e+005 3.649376466822e+005 3.649376466822e+005 3.649376466822e+005 3.649376466822e+005 3.649376466822e+005 3.629328197151e+005 3.629328197152e+005 3.629328197152e+005 3.629328197152e+005 3.629328197152e+005 3.629328197152e+005 3.629328197152e+005 3.629328197151e+005 3.629328197152e+005 3.609077878054e+005 3.609077878054e+005 3.609077878054e+005 3.609077878054e+005 3.609077878054e+005 3.609077878054e+005 3.609077878054e+005 3.609077878054e+005 3.609077878054e+005 3.588620318098e+005 3.588620318098e+005 3.588620318098e+005 3.588620318098e+005 3.588620318098e+005 3.588620318098e+005 3.588620318098e+005 3.588620318098e+005 3.588620318098e+005 3.567950110624e+005 3.567950110624e+005 3.567950110624e+005 3.567950110624e+005 3.567950110624e+005 3.567950110624e+005 3.567950110624e+005 3.567950110624e+005 3.567950110624e+005 3.547061621172e+005 3.547061621172e+005 3.547061621172e+005 3.547061621172e+005 3.547061621172e+005 3.547061621172e+005 3.547061621172e+005 3.547061621172e+005 3.547061621172e+005 3.525948973973e+005 3.525948973973e+005 3.525948973973e+005 3.525948973973e+005 3.525948973973e+005 3.525948973973e+005 3.525948973973e+005 3.525948973973e+005 3.525948973973e+005 3.504606037514e+005 3.504606037514e+005 3.504606037514e+005 3.504606037514e+005 3.504606037514e+005 3.504606037514e+005 3.504606037514e+005 3.504606037514e+005 3.504606037514e+005 3.483026409050e+005 3.483026409049e+005 3.483026409050e+005 3.483026409049e+005 3.483026409050e+005 3.483026409049e+005 3.483026409050e+005 3.483026409050e+005 3.483026409050e+005 3.461203397903e+005 3.461203397903e+005 3.461203397903e+005 3.461203397903e+005 3.461203397903e+005 3.461203397903e+005 3.461203397903e+005 3.461203397903e+005 3.461203397903e+005 3.439130007445e+005 3.439130007445e+005 3.439130007445e+005 3.439130007445e+005 3.439130007445e+005 3.439130007445e+005 3.439130007445e+005 3.439130007445e+005 3.439130007445e+005 3.416798915593e+005 3.416798915593e+005 3.416798915593e+005 3.416798915593e+005 3.416798915593e+005 3.416798915593e+005 3.416798915593e+005 3.416798915593e+005 3.416798915593e+005 3.394202453694e+005 3.394202453694e+005 3.394202453694e+005 3.394202453694e+005 3.394202453694e+005 3.394202453694e+005 3.394202453694e+005 3.394202453694e+005 3.394202453694e+005 3.371332583630e+005 3.371332583630e+005 3.371332583630e+005 3.371332583630e+005 3.371332583630e+005 3.371332583630e+005 3.371332583630e+005 3.371332583630e+005 3.371332583630e+005 3.348180872959e+005 3.348180872959e+005 3.348180872959e+005 3.348180872959e+005 3.348180872959e+005 3.348180872959e+005 3.348180872959e+005 3.348180872959e+005 3.348180872959e+005 3.324738467895e+005 3.324738467895e+005 3.324738467895e+005 3.324738467895e+005 3.324738467895e+005 3.324738467895e+005 3.324738467895e+005 3.324738467895e+005 3.324738467895e+005 3.300996063885e+005 3.300996063886e+005 3.300996063886e+005 3.300996063885e+005 3.300996063886e+005 3.300996063886e+005 3.300996063886e+005 3.300996063886e+005 3.300996063885e+005 3.276943873527e+005 3.276943873527e+005 3.276943873527e+005 3.276943873527e+005 3.276943873527e+005 3.276943873527e+005 3.276943873527e+005 3.276943873527e+005 3.276943873527e+005 3.252571591519e+005 3.252571591519e+005 3.252571591519e+005 3.252571591519e+005 3.252571591519e+005 3.252571591519e+005 3.252571591519e+005 3.252571591519e+005 3.252571591519e+005 3.227868356320e+005 3.227868356320e+005 3.227868356320e+005 3.227868356320e+005 3.227868356320e+005 3.227868356320e+005 3.227868356320e+005 3.227868356320e+005 3.227868356320e+005 3.202822708118e+005 3.202822708118e+005 3.202822708118e+005 3.202822708118e+005 3.202822708118e+005 3.202822708118e+005 3.202822708118e+005 3.202822708118e+005 3.202822708118e+005 3.177422542676e+005 3.177422542677e+005 3.177422542676e+005 3.177422542677e+005 3.177422542677e+005 3.177422542677e+005 3.177422542676e+005 3.177422542676e+005 3.177422542676e+005 3.151655060559e+005 3.151655060559e+005 3.151655060559e+005 3.151655060559e+005 3.151655060559e+005 3.151655060559e+005 3.151655060559e+005 3.151655060559e+005 3.151655060559e+005 3.125506711159e+005 3.125506711159e+005 3.125506711159e+005 3.125506711159e+005 3.125506711159e+005 3.125506711159e+005 3.125506711159e+005 3.125506711159e+005 3.125506711159e+005 3.098963130866e+005 3.098963130866e+005 3.098963130866e+005 3.098963130867e+005 3.098963130866e+005 3.098963130866e+005 3.098963130866e+005 3.098963130866e+005 3.098963130866e+005 3.072009074627e+005 3.072009074627e+005 3.072009074627e+005 3.072009074627e+005 3.072009074627e+005 3.072009074627e+005 3.072009074627e+005 3.072009074627e+005 3.072009074627e+005 3.044628340001e+005 3.044628340001e+005 3.044628340001e+005 3.044628340001e+005 3.044628340001e+005 3.044628340001e+005 3.044628340001e+005 3.044628340001e+005 3.044628340001e+005 3.016803682708e+005 3.016803682708e+005 3.016803682708e+005 3.016803682708e+005 3.016803682708e+005 3.016803682708e+005 3.016803682708e+005 3.016803682708e+005 3.016803682708e+005 2.988516722483e+005 2.988516722482e+005 2.988516722483e+005 2.988516722482e+005 2.988516722482e+005 2.988516722482e+005 2.988516722482e+005 2.988516722482e+005 2.988516722482e+005 2.959747837832e+005 2.959747837832e+005 2.959747837833e+005 2.959747837832e+005 2.959747837833e+005 2.959747837833e+005 2.959747837832e+005 2.959747837833e+005 2.959747837832e+005 2.930476048108e+005 2.930476048108e+005 2.930476048108e+005 2.930476048108e+005 2.930476048108e+005 2.930476048108e+005 2.930476048108e+005 2.930476048108e+005 2.930476048108e+005 2.900678880945e+005 2.900678880945e+005 2.900678880945e+005 2.900678880945e+005 2.900678880945e+005 2.900678880945e+005 2.900678880945e+005 2.900678880945e+005 2.900678880945e+005 2.870332222852e+005 2.870332222852e+005 2.870332222852e+005 2.870332222852e+005 2.870332222852e+005 2.870332222852e+005 2.870332222852e+005 2.870332222852e+005 2.870332222852e+005 2.839410150246e+005 2.839410150246e+005 2.839410150246e+005 2.839410150246e+005 2.839410150246e+005 2.839410150246e+005 2.839410150246e+005 2.839410150246e+005 2.839410150246e+005 2.807884737765e+005 2.807884737765e+005 2.807884737765e+005 2.807884737765e+005 2.807884737765e+005 2.807884737765e+005 2.807884737765e+005 2.807884737765e+005 2.807884737765e+005 2.775725840039e+005 2.775725840038e+005 2.775725840039e+005 2.775725840038e+005 2.775725840038e+005 2.775725840038e+005 2.775725840038e+005 2.775725840038e+005 2.775725840038e+005 2.742900842320e+005 2.742900842320e+005 2.742900842320e+005 2.742900842320e+005 2.742900842320e+005 2.742900842320e+005 2.742900842320e+005 2.742900842320e+005 2.742900842320e+005 2.709374374439e+005 2.709374374439e+005 2.709374374439e+005 2.709374374439e+005 2.709374374439e+005 2.709374374439e+005 2.709374374439e+005 2.709374374439e+005 2.709374374439e+005 2.675107981316e+005 2.675107981316e+005 2.675107981316e+005 2.675107981316e+005 2.675107981316e+005 2.675107981316e+005 2.675107981316e+005 2.675107981316e+005 2.675107981316e+005 2.640059741774e+005 2.640059741774e+005 2.640059741774e+005 2.640059741774e+005 2.640059741774e+005 2.640059741774e+005 2.640059741774e+005 2.640059741774e+005 2.640059741774e+005 2.604183825497e+005 2.604183825497e+005 2.604183825497e+005 2.604183825497e+005 2.604183825497e+005 2.604183825497e+005 2.604183825497e+005 2.604183825498e+005 2.604183825497e+005 2.567429975512e+005 2.567429975512e+005 2.567429975512e+005 2.567429975513e+005 2.567429975512e+005 2.567429975513e+005 2.567429975512e+005 2.567429975512e+005 2.567429975512e+005 2.529742900479e+005 2.529742900479e+005 2.529742900479e+005 2.529742900479e+005 2.529742900479e+005 2.529742900479e+005 2.529742900479e+005 2.529742900479e+005 2.529742900479e+005 2.491061557006e+005 2.491061557006e+005 2.491061557006e+005 2.491061557006e+005 2.491061557006e+005 2.491061557006e+005 2.491061557007e+005 2.491061557006e+005 2.491061557006e+005 2.451318296916e+005 2.451318296916e+005 2.451318296916e+005 2.451318296916e+005 2.451318296916e+005 2.451318296916e+005 2.451318296916e+005 2.451318296916e+005 2.451318296916e+005 2.410437847388e+005 2.410437847388e+005 2.410437847388e+005 2.410437847388e+005 2.410437847388e+005 2.410437847388e+005 2.410437847389e+005 2.410437847388e+005 2.410437847389e+005 2.368336082610e+005 2.368336082610e+005 2.368336082610e+005 2.368336082610e+005 2.368336082610e+005 2.368336082610e+005 2.368336082609e+005 2.368336082610e+005 2.368336082610e+005 2.324918532993e+005 2.324918532993e+005 2.324918532993e+005 2.324918532993e+005 2.324918532993e+005 2.324918532993e+005 2.324918532993e+005 2.324918532993e+005 2.324918532993e+005 2.280078560935e+005 2.280078560935e+005 2.280078560935e+005 2.280078560935e+005 2.280078560935e+005 2.280078560935e+005 2.280078560935e+005 2.280078560935e+005 2.280078560936e+005 2.233695108348e+005 2.233695108348e+005 2.233695108348e+005 2.233695108348e+005 2.233695108348e+005 2.233695108348e+005 2.233695108348e+005 2.233695108348e+005 2.233695108347e+005 2.185629887618e+005 2.185629887618e+005 2.185629887618e+005 2.185629887618e+005 2.185629887618e+005 2.185629887618e+005 2.185629887618e+005 2.185629887618e+005 2.185629887618e+005 2.135723839152e+005 2.135723839152e+005 2.135723839152e+005 2.135723839152e+005 2.135723839152e+005 2.135723839152e+005 2.135723839152e+005 2.135723839152e+005 2.135723839152e+005 2.083792608322e+005 2.083792608322e+005 2.083792608322e+005 2.083792608322e+005 2.083792608322e+005 2.083792608322e+005 2.083792608322e+005 2.083792608322e+005 2.083792608322e+005 2.029620695212e+005 2.029620695212e+005 2.029620695212e+005 2.029620695212e+005 2.029620695212e+005 2.029620695212e+005 2.029620695212e+005 2.029620695212e+005 2.029620695212e+005 1.972953791836e+005 1.972953791836e+005 1.972953791836e+005 1.972953791836e+005 1.972953791836e+005 1.972953791836e+005 1.972953791836e+005 1.972953791836e+005 1.972953791836e+005 1.913488602280e+005 1.913488602280e+005 1.913488602280e+005 1.913488602279e+005 1.913488602279e+005 1.913488602280e+005 1.913488602279e+005 1.913488602280e+005 1.913488602279e+005 1.850859013823e+005 1.850859013823e+005 1.850859013823e+005 1.850859013823e+005 1.850859013823e+005 1.850859013823e+005 1.850859013823e+005 1.850859013823e+005 1.850859013823e+005 1.784616695342e+005 1.784616695342e+005 1.784616695342e+005 1.784616695342e+005 1.784616695342e+005 1.784616695342e+005 1.784616695342e+005 1.784616695342e+005 1.784616695343e+005 1.714203212164e+005 1.714203212165e+005 1.714203212165e+005 1.714203212165e+005 1.714203212165e+005 1.714203212165e+005 1.714203212165e+005 1.714203212165e+005 1.714203212165e+005 1.638909900782e+005 1.638909900782e+005 1.638909900782e+005 1.638909900782e+005 1.638909900782e+005 1.638909900782e+005 1.638909900782e+005 1.638909900782e+005 1.638909900782e+005 1.557818952633e+005 1.557818952632e+005 1.557818952631e+005 1.557818952630e+005 1.557818952631e+005 1.557818952632e+005 1.557818952630e+005 1.557818952629e+005 1.557818952628e+005 1.469708561855e+005 1.469708561852e+005 1.469708561849e+005 1.469708561846e+005 1.469708561849e+005 1.469708561853e+005 1.469708561850e+005 1.469708561847e+005 1.469708561845e+005 1.372888963433e+005 1.372888963431e+005 1.372888963433e+005 1.372888963429e+005 1.372888963429e+005 1.372888963437e+005 1.372888963436e+005 1.372888963439e+005 1.372888963433e+005 1.264924884829e+005 1.264924884828e+005 1.264924884850e+005 1.264924884853e+005 1.264924884837e+005 1.264924884835e+005 1.264924884844e+005 1.264924884861e+005 1.264924884851e+005 1.142133628266e+005 1.142133628246e+005 1.142133628282e+005 1.142133628314e+005 1.142133628268e+005 1.142133628235e+005 1.142133628252e+005 1.142133628284e+005 1.142133628260e+005 9.984929850447e+004 9.984929849603e+004 9.984929849442e+004 9.984929850171e+004 9.984929849857e+004 9.984929849256e+004 9.984929849547e+004 9.984929849581e+004 9.984929849085e+004 8.230997978841e+004 8.230997977431e+004 8.230997975880e+004 8.230997976768e+004 8.230997977532e+004 8.230997977403e+004 8.230997977914e+004 8.230997976949e+004 8.230997976551e+004 5.932010572060e+004 5.932010572038e+004 5.932010570053e+004 5.932010569755e+004 5.932010571893e+004 5.932010572479e+004 5.932010573189e+004 5.932010571219e+004 5.932010572506e+004 2.529000736065e+004 2.529000743595e+004 2.529000745005e+004 2.529000741172e+004 2.529000741913e+004 2.529000741789e+004 2.529000741977e+004 2.529000739766e+004 2.529000746672e+004 -2.420719701962e+004 -2.420719597499e+004 -2.420719553019e+004 -2.420719609616e+004 -2.420719614236e+004 -2.420719629512e+004 -2.420719631430e+004 -2.420719647594e+004 -2.420719557438e+004 -7.566611853243e+004 -7.566611722808e+004 -7.566611594085e+004 -7.566611710224e+004 -7.566611772596e+004 -7.566611767009e+004 -7.566611789548e+004 -7.566611672497e+004 -7.566611637090e+004 -1.271044945151e+005 -1.271044927291e+005 -1.271044916783e+005 -1.271044920514e+005 -1.271044916129e+005 -1.271044901568e+005 -1.271044919531e+005 -1.271044913889e+005 -1.271044909446e+005 -1.785355019825e+005 -1.785354991190e+005 -1.785354984650e+005 -1.785354966938e+005 -1.785354968342e+005 -1.785354966034e+005 -1.785354968954e+005 -1.785354955881e+005 -1.785354948493e+005 -2.299550890744e+005 -2.299550881641e+005 -2.299550871563e+005 -2.299550858267e+005 -2.299550852562e+005 -2.299550843972e+005 -2.299550845250e+005 -2.299550831414e+005 -2.299550836726e+005 -2.813645102137e+005 -2.813645100678e+005 -2.813645079156e+005 -2.813645092365e+005 -2.813645069608e+005 -2.813645065488e+005 -2.813645062854e+005 -2.813645051514e+005 -2.813645040608e+005 -3.327633916518e+005 -3.327633906641e+005 -3.327633916125e+005 -3.327633893523e+005 -3.327633890445e+005 -3.327633879081e+005 -3.327633876926e+005 -3.327633875077e+005 -3.327633864344e+005 -3.841518464328e+005 -3.841518480135e+005 -3.841518473841e+005 -3.841518472151e+005 -3.841518457981e+005 -3.841518453781e+005 -3.841518445323e+005 -3.841518431428e+005 -3.841518424710e+005 -4.355298534897e+005 -4.355298553713e+005 -4.355298561071e+005 -4.355298546515e+005 -4.355298530477e+005 -4.355298531588e+005 -4.355298515922e+005 -4.355298502507e+005 -4.355298500976e+005 -4.868974220979e+005 -4.868974244348e+005 -4.868974242925e+005 -4.868974242658e+005 -4.868974232994e+005 -4.868974215294e+005 -4.868974203456e+005 -4.868974200551e+005 -4.868974193814e+005 -5.382545597706e+005 -5.382545578299e+005 -5.382545586945e+005 -5.382545586337e+005 -5.382545583240e+005 -5.382545557676e+005 -5.382545547488e+005 -5.382545555505e+005 -5.382545552210e+005 -5.896012645907e+005 -5.896012640242e+005 -5.896012637888e+005 -5.896012636965e+005 -5.896012627304e+005 -5.896012604975e+005 -5.896012611457e+005 -5.896012605159e+005 -5.896012608473e+005 -6.409375452150e+005 -6.409375444376e+005 -6.409375443907e+005 -6.409375429646e+005 -6.409375428146e+005 -6.409375417732e+005 -6.409375414965e+005 -6.409375409066e+005 -6.409375416169e+005 -6.922634045322e+005 -6.922634036321e+005 -6.922634040024e+005 -6.922634036371e+005 -6.922634025044e+005 -6.922634023872e+005 -6.922634017680e+005 -6.922634016992e+005 -6.922634005052e+005 -7.435788466692e+005 -7.435788473391e+005 -7.435788481151e+005 -7.435788476556e+005 -7.435788469206e+005 -7.435788472229e+005 -7.435788465746e+005 -7.435788466088e+005 -7.435788463362e+005 -7.948838796522e+005 -7.948838804230e+005 -7.948838809659e+005 -7.948838803831e+005 -7.948838803388e+005 -7.948838805616e+005 -7.948838797463e+005 -7.948838802786e+005 -7.948838803486e+005 -8.461785074331e+005 -8.461785075465e+005 -8.461785078904e+005 -8.461785080164e+005 -8.461785068749e+005 -8.461785067148e+005 -8.461785070197e+005 -8.461785072853e+005 -8.461785071282e+005 -8.974627321586e+005 -8.974627329808e+005 -8.974627336122e+005 -8.974627335400e+005 -8.974627332363e+005 -8.974627325585e+005 -8.974627325589e+005 -8.974627327293e+005 -8.974627328417e+005 -9.487365620428e+005 -9.487365624752e+005 -9.487365627274e+005 -9.487365625766e+005 -9.487365626696e+005 -9.487365622117e+005 -9.487365622117e+005 -9.487365623756e+005 -9.487365622181e+005 -1.000000000000e+006 -1.000000000000e+006 -1.000000000000e+006 -1.000000000000e+006 -1.000000000000e+006 -1.000000000000e+006 -1.000000000000e+006 -1.000000000000e+006 -1.000000000000e+006 
        </DataArray>
        <DataArray type="Float64" Name="NONWET_PRESSURE" format="ascii">