<?xml version="1.0"?>
<VTKFile type="UnstructuredGrid" version="0.1" byte_order="LittleEndian">
  <UnstructuredGrid>
    <Piece NumberOfPoints="909" NumberOfCells="800">
      <Points>
        <DataArray type="Float64" NumberOfComponents="3" format="ascii">
          0.000000000000e+000 0.000000000000e+000 0.000000000000e+000
          2.000000000000e+000 0.000000000000e+000 0.000000000000e+000
          2.000000000000e+000 2.500000000000e+000 0.000000000000e+000
          0.000000000000e+000 2.500000000000e+000 0.000000000000e+000
          2.000000000000e+000 5.000000000000e+000 0.000000000000e+000
          0.000000000000e+000 5.000000000000e+000 0.000000000000e+000
          2.000000000000e+000 7.500000000000e+000 0.000000000000e+000
          0.000000000000e+000 7.500000000000e+000 0.000000000000e+000
          2.000000000000e+000 1.000000000000e+001 0.000000000000e+000
          0.000000000000e+000 1.000000000000e+001 0.000000000000e+000
          2.000000000000e+000 1.250000000000e+001 0.000000000000e+000
          0.000000000000e+000 1.250000000000e+001 0.000000000000e+000
          2.000000000000e+000 1.500000000000e+001 0.000000000000e+000
          0.000000000000e+000 1.500000000000e+001 0.000000000000e+000
          2.000000000000e+000 1.750000000000e+001 0.000000000000e+000
          0.000000000000e+000 1.750000000000e+001 0.000000000000e+000
          2.000000000000e+000 2.000000000000e+001 0.000000000000e+000
          0.000000000000e+000 2.000000000000e+001 0.000000000000e+000
          4.000000000000e+000 0.000000000000e+000 0.000000000000e+000
          4.000000000000e+000 2.500000000000e+000 0.000000000000e+000
          4.000000000000e+000 5.000000000000e+000 0.000000000000e+000
          4.000000000000e+000 7.500000000000e+000 0.000000000000e+000
          4.000000000000e+000 1.000000000000e+001 0.000000000000e+000
          4.000000000000e+000 1.250000000000e+001 0.000000000000e+000
          4.000000000000e+000 1.500000000000e+001 0.000000000000e+000
          4.000000000000e+000 1.750000000000e+001 0.000000000000e+000
          4.000000000000e+000 2.000000000000e+001 0.000000000000e+000
          6.000000000000e+000 0.000000000000e+000 0.000000000000e+000
          6.000000000000e+000 2.500000000000e+000 0.000000000000e+000
          6.000000000000e+000 5.000000000000e+000 0.000000000000e+000
          6.000000000000e+000 7.500000000000e+000 0.000000000000e+000
          6.000000000000e+000 1.000000000000e+001 0.000000000000e+000
          6.000000000000e+000 1.250000000000e+001 0.000000000000e+000
          6.000000000000e+000 1.500000000000e+001 0.000000000000e+000
          6.000000000000e+000 1.750000000000e+001 0.000000000000e+000
          6.000000000000e+000 2.000000000000e+001 0.000000000000e+000
          8.000000000000e+000 0.000000000000e+000 0.000000000000e+000
          8.000000000000e+000 2.500000000000e+000 0.000000000000e+000
          8.000000000000e+000 5.000000000000e+000 0.000000000000e+000
          8.000000000000e+000 7.500000000000e+000 0.000000000000e+000
          8.000000000000e+000 1.000000000000e+001 0.000000000000e+000
          8.000000000000e+000 1.250000000000e+001 0.000000000000e+000
          8.000000000000e+000 1.500000000000e+001 0.000000000000e+000
          8.000000000000e+000 1.750000000000e+001 0.000000000000e+000
          8.000000000000e+000 2.000000000000e+001 0.000000000000e+000
          1.000000000000e+001 0.000000000000e+000 0.000000000000e+000
          1.000000000000e+001 2.500000000000e+000 0.000000000000e+000
          1.000000000000e+001 5.000000000000e+000 0.000000000000e+000
          1.000000000000e+001 7.500000000000e+000 0.000000000000e+000
          1.000000000000e+001 1.000000000000e+001 0.000000000000e+000
          1.000000000000e+001 1.250000000000e+001 0.000000000000e+000
          1.000000000000e+001 1.500000000000e+001 0.000000000000e+000
          1.000000000000e+001 1.750000000000e+001 0.000000000000e+000
          1.000000000000e+001 2.000000000000e+001 0.000000000000e+000
          1.200000000000e+001 0.000000000000e+000 0.000000000000e+000
          1.200000000000e+001 2.500000000000e+000 0.000000000000e+000
          1.200000000000e+001 5.000000000000e+000 0.000000000000e+000
          1.200000000000e+001 7.500000000000e+000 0.000000000000e+000
          1.200000000000e+001 1.000000000000e+001 0.000000000000e+000
          1.200000000000e+001 1.250000000000e+001 0.000000000000e+000
          1.200000000000e+001 1.500000000000e+001 0.000000000000e+000
          1.200000000000e+001 1.750000000000e+001 0.000000000000e+000
          1.200000000000e+001 2.000000000000e+001 0.000000000000e+000
          1.400000000000e+001 0.000000000000e+000 0.000000000000e+000
          1.400000000000e+001 2.500000000000e+000 0.000000000000e+000
          1.400000000000e+001 5.000000000000e+000 0.000000000000e+000
          1.400000000000e+001 7.500000000000e+000 0.000000000000e+000
          1.400000000000e+001 1.000000000000e+001 0.000000000000e+000
          1.400000000000e+001 1.250000000000e+001 0.000000000000e+000
          1.400000000000e+001 1.500000000000e+001 0.000000000000e+000
          1.400000000000e+001 1.750000000000e+001 0.000000000000e+000
          1.400000000000e+001 2.000000000000e+001 0.000000000000e+000
          1.600000000000e+001 0.000000000000e+000 0.000000000000e+000
          1.600000000000e+001 2.500000000000e+000 0.000000000000e+000
          1.600000000000e+001 5.000000000000e+000 0.000000000000e+000
          1.600000000000e+001 7.500000000000e+000 0.000000000000e+000
          1.600000000000e+001 1.000000000000e+001 0.000000000000e+000
          1.600000000000e+001 1.250000000000e+001 0.000000000000e+000
          1.600000000000e+001 1.500000000000e+001 0.000000000000e+000
          1.600000000000e+001 1.750000000000e+001 0.000000000000e+000
          1.600000000000e+001 2.000000000000e+001 0.000000000000e+000
          1.800000000000e+001 0.000000000000e+000 0.000000000000e+000
          1.800000000000e+001 2.500000000000e+000 0.000000000000e+000
          1.800000000000e+001 5.000000000000e+000 0.000000000000e+000
          1.800000000000e+001 7.500000000000e+000 0.000000000000e+000
          1.800000000000e+001 1.000000000000e+001 0.000000000000e+000
          1.800000000000e+001 1.250000000000e+001 0.000000000000e+000
          1.800000000000e+001 1.500000000000e+001 0.000000000000e+000
          1.800000000000e+001 1.750000000000e+001 0.000000000000e+000
          1.800000000000e+001 2.000000000000e+001 0.000000000000e+000
          2.000000000000e+001 0.000000000000e+000 0.000000000000e+000
          2.000000000000e+001 2.500000000000e+000 0.000000000000e+000
          2.000000000000e+001 5.000000000000e+000 0.000000000000e+000
          2.000000000000e+001 7.500000000000e+000 0.000000000000e+000
          2.000000000000e+001 1.000000000000e+001 0.000000000000e+000
          2.000000000000e+001 1.250000000000e+001 0.000000000000e+000
          2.000000000000e+001 1.500000000000e+001 0.000000000000e+000
          2.000000000000e+001 1.750000000000e+001 0.000000000000e+000
          2.000000000000e+001 2.000000000000e+001 0.000000000000e+000
          2.200000000000e+001 0.000000000000e+000 0.000000000000e+000
          2.200000000000e+001 2.500000000000e+000 0.000000000000e+000
          2.200000000000e+001 5.000000000000e+000 0.000000000000e+000
          2.200000000000e+001 7.500000000000e+000 0.000000000000e+000
          2.200000000000e+001 1.000000000000e+001 0.000000000000e+000
          2.200000000000e+001 1.250000000000e+001 0.000000000000e+000
          2.200000000000e+001 1.500000000000e+001 0.000000000000e+000
          2.200000000000e+001 1.750000000000e+001 0.000000000000e+000
          2.200000000000e+001 2.000000000000e+001 0.000000000000e+000
          2.400000000000e+001 0.000000000000e+000 0.000000000000e+000
          2.400000000000e+001 2.500000000000e+000 0.000000000000e+000
          2.400000000000e+001 5.000000000000e+000 0.000000000000e+000
          2.400000000000e+001 7.500000000000e+000 0.000000000000e+000
          2.400000000000e+001 1.000000000000e+001 0.000000000000e+000
          2.400000000000e+001 1.250000000000e+001 0.000000000000e+000
          2.400000000000e+001 1.500000000000e+001 0.000000000000e+000
          2.400000000000e+001 1.750000000000e+001 0.000000000000e+000
          2.400000000000e+001 2.000000000000e+001 0.000000000000e+000
          2.600000000000e+001 0.000000000000e+000 0.000000000000e+000
          2.600000000000e+001 2.500000000000e+000 0.000000000000e+000
          2.600000000000e+001 5.000000000000e+000 0.000000000000e+000
          2.600000000000e+001 7.500000000000e+000 0.000000000000e+000
          2.600000000000e+001 1.000000000000e+001 0.000000000000e+000
          2.600000000000e+001 1.250000000000e+001 0.000000000000e+000
          2.600000000000e+001 1.500000000000e+001 0.000000000000e+000
          2.600000000000e+001 1.750000000000e+001 0.000000000000e+000
          2.600000000000e+001 2.000000000000e+001 0.000000000000e+000
          2.800000000000e+001 0.000000000000e+000 0.000000000000e+000
          2.800000000000e+001 2.500000000000e+000 0.000000000000e+000
          2.800000000000e+001 5.000000000000e+000 0.000000000000e+000
          2.800000000000e+001 7.500000000000e+000 0.000000000000e+000
          2.800000000000e+001 1.000000000000e+001 0.000000000000e+000
          2.800000000000e+001 1.250000000000e+001 0.000000000000e+000
          2.800000000000e+001 1.500000000000e+001 0.000000000000e+000
          2.800000000000e+001 1.750000000000e+001 0.000000000000e+000
          2.800000000000e+001 2.000000000000e+001 0.000000000000e+000
          3.000000000000e+001 0.000000000000e+000 0.000000000000e+000
          3.000000000000e+001 2.500000000000e+000 0.000000000000e+000
          3.000000000000e+001 5.000000000000e+000 0.000000000000e+000
          3.000000000000e+001 7.500000000000e+000 0.000000000000e+000
[...]
      <PointData Scalars="CAPILLARY_PRESSURE">
        <DataArray type="Float64" Name="CAPILLARY_PRESSURE" format="ascii">
          3.226245613714e+005 3.203220457236e+005 3.203220457236e+005 3.226245613714e+005 3.203220457236e+005 3.226245613714e+005 3.203220457236e+005 3.226245613714e+005 3.203220457236e+005 3.226245613714e+005 3.203220457236e+005 3.226245613714e+005 3.203220457236e+005 3.226245613714e+005 3.203220457236e+005 3.226245613714e+005 3.203220457236e+005 3.226245613714e+005 3.180268964389e+005 3.180268964389e+005 3.180268964389e+005 3.180268964389e+005 3.180268964389e+005 3.180268964389e+005 3.180268964389e+005 3.180268964389e+005 3.180268964389e+005 3.157387368492e+005 3.157387368492e+005 3.157387368492e+005 3.157387368492e+005 3.157387368492e+005 3.157387368492e+005 3.157387368492e+005 3.157387368492e+005 3.157387368492e+005 3.134571517129e+005 3.134571517129e+005 3.134571517129e+005 3.134571517129e+005 3.134571517129e+005 3.134571517129e+005 3.134571517129e+005 3.134571517129e+005 3.134571517129e+005 3.111816895216e+005 3.111816895216e+005 3.111816895216e+005 3.111816895216e+005 3.111816895216e+005 3.111816895216e+005 3.111816895216e+005 3.111816895216e+005 3.111816895216e+005 3.089118669167e+005 3.089118669167e+005 3.089118669167e+005 3.089118669167e+005 3.089118669167e+005 3.089118669167e+005 3.089118669167e+005 3.089118669167e+005 3.089118669167e+005 3.066471720974e+005 3.066471720974e+005 3.066471720974e+005 3.066471720974e+005 3.066471720974e+005 3.066471720974e+005 3.066471720974e+005 3.066471720974e+005 3.066471720974e+005 3.043870678994e+005 3.043870678994e+005 3.043870678994e+005 3.043870678994e+005 3.043870678994e+005 3.043870678994e+005 3.043870678994e+005 3.043870678994e+005 3.043870678994e+005 3.021309935611e+005 3.021309935611e+005 3.021309935611e+005 3.021309935611e+005 3.021309935611e+005 3.021309935611e+005 3.021309935611e+005 3.021309935611e+005 3.021309935611e+005 2.998783653849e+005 2.998783653849e+005 2.998783653849e+005 2.998783653849e+005 2.998783653849e+005 2.998783653849e+005 2.998783653849e+005 2.998783653849e+005 2.998783653849e+005 2.976285763050e+005 2.976285763050e+005 2.976285763050e+005 2.976285763050e+005 2.976285763050e+005 2.976285763050e+005 2.976285763050e+005 2.976285763050e+005 2.976285763050e+005 2.953809946656e+005 2.953809946656e+005 2.953809946656e+005 2.953809946656e+005 2.953809946656e+005 2.953809946656e+005 2.953809946656e+005 2.953809946656e+005 2.953809946656e+005 2.931349625220e+005 2.931349625220e+005 2.931349625220e+005 2.931349625220e+005 2.931349625220e+005 2.931349625220e+005 2.931349625220e+005 2.931349625220e+005 2.931349625220e+005 2.908897936927e+005 2.908897936927e+005 2.908897936927e+005 2.908897936927e+005 2.908897936927e+005 2.908897936927e+005 2.908897936927e+005 2.908897936927e+005 2.908897936927e+005 2.886447716840e+005 2.886447716840e+005 2.886447716840e+005 2.886447716840e+005 2.886447716840e+005 2.886447716840e+005 2.886447716840e+005 2.886447716840e+005 2.886447716840e+005 2.863991475312e+005 2.863991475312e+005 2.863991475312e+005 2.863991475312e+005 2.863991475312e+005 2.863991475312e+005 2.863991475312e+005 2.863991475312e+005 2.863991475312e+005 2.841521375543e+005 2.841521375543e+005 2.841521375543e+005 2.841521375543e+005 2.841521375543e+005 2.841521375543e+005 2.841521375543e+005 2.841521375543e+005 2.841521375543e+005 2.819029210047e+005 2.819029210047e+005 2.819029210047e+005 2.819029210047e+005 2.819029210047e+005 2.819029210047e+005 2.819029210047e+005 2.819029210047e+005 2.819029210047e+005 2.796506375646e+005 2.796506375646e+005 2.796506375646e+005 2.796506375646e+005 2.796506375646e+005 2.796506375646e+005 2.796506375646e+005 2.796506375646e+005 2.796506375646e+005 2.773943846629e+005 2.773943846629e+005 2.773943846629e+005 2.773943846629e+005 2.773943846629e+005 2.773943846629e+005 2.773943846629e+005 2.773943846629e+005 2.773943846629e+005 2.751332145690e+005 2.751332145690e+005 2.751332145690e+005 2.751332145690e+005 2.751332145690e+005 2.751332145690e+005 2.751332145690e+005 2.751332145690e+005 2.751332145690e+005 2.728661312284e+005 2.728661312284e+005 2.728661312284e+005 2.728661312284e+005 2.728661312284e+005 2.728661312284e+005 2.728661312284e+005 2.728661312284e+005 2.728661312284e+005 2.705920868036e+005 2.705920868036e+005 2.705920868036e+005 2.705920868036e+005 2.705920868036e+005 2.705920868036e+005 2.705920868036e+005 2.705920868036e+005 2.705920868036e+005 2.683099778841e+005 2.683099778841e+005 2.683099778841e+005 2.683099778841e+005 2.683099778841e+005 2.683099778841e+005 2.683099778841e+005 2.683099778841e+005 2.683099778841e+005 2.660186413237e+005 2.660186413237e+005 2.660186413237e+005 2.660186413237e+005 2.660186413237e+005 2.660186413237e+005 2.660186413237e+005 2.660186413237e+005 2.660186413237e+005 2.637168496624e+005 2.637168496624e+005 2.637168496624e+005 2.637168496624e+005 2.637168496624e+005 2.637168496624e+005 2.637168496624e+005 2.637168496624e+005 2.637168496624e+005 2.614033060810e+005 2.614033060810e+005 2.614033060810e+005 2.614033060810e+005 2.614033060810e+005 2.614033060810e+005 2.614033060810e+005 2.614033060810e+005 2.614033060810e+005 2.590766388337e+005 2.590766388337e+005 2.590766388337e+005 2.590766388337e+005 2.590766388337e+005 2.590766388337e+005 2.590766388337e+005 2.590766388337e+005 2.590766388337e+005 2.567353950912e+005 2.567353950912e+005 2.567353950912e+005 2.567353950912e+005 2.567353950912e+005 2.567353950912e+005 2.567353950912e+005 2.567353950912e+005 2.567353950912e+005 2.543780341211e+005 2.543780341211e+005 2.543780341211e+005 2.543780341211e+005 2.543780341211e+005 2.543780341211e+005 2.543780341211e+005 2.543780341211e+005 2.543780341211e+005 2.520029197175e+005 2.520029197175e+005 2.520029197175e+005 2.520029197175e+005 2.520029197175e+005 2.520029197175e+005 2.520029197175e+005 2.520029197175e+005 2.520029197175e+005 2.496083117797e+005 2.496083117797e+005 2.496083117797e+005 2.496083117797e+005 2.496083117797e+005 2.496083117797e+005 2.496083117797e+005 2.496083117797e+005 2.496083117797e+005 2.471923569220e+005 2.471923569220e+005 2.471923569220e+005 2.471923569220e+005 2.471923569220e+005 2.471923569220e+005 2.471923569220e+005 2.471923569220e+005 2.471923569220e+005 2.447530779781e+005 2.447530779781e+005 2.447530779781e+005 2.447530779781e+005 2.447530779781e+005 2.447530779781e+005 2.447530779781e+005 2.447530779781e+005 2.447530779781e+005 2.422883622383e+005 2.422883622383e+005 2.422883622383e+005 2.422883622383e+005 2.422883622383e+005 2.422883622383e+005 2.422883622383e+005 2.422883622383e+005 2.422883622383e+005 2.397959482295e+005 2.397959482295e+005 2.397959482295e+005 2.397959482295e+005 2.397959482295e+005 2.397959482295e+005 2.397959482295e+005 2.397959482295e+005 2.397959482295e+005 2.372734108141e+005 2.372734108141e+005 2.372734108141e+005 2.372734108141e+005 2.372734108141e+005 2.372734108141e+005 2.372734108141e+005 2.372734108141e+005 2.372734108141e+005 2.347181443410e+005 2.347181443410e+005 2.347181443410e+005 2.347181443410e+005 2.347181443410e+005 2.347181443410e+005 2.347181443410e+005 2.347181443410e+005 2.347181443410e+005 2.321273435293e+005 2.321273435293e+005 2.321273435293e+005 2.321273435293e+005 2.321273435293e+005 2.321273435293e+005 2.321273435293e+005 2.321273435293e+005 2.321273435293e+005 2.294979817067e+005 2.294979817067e+005 2.294979817067e+005 2.294979817067e+005 2.294979817067e+005 2.294979817067e+005 2.294979817067e+005 2.294979817067e+005 2.294979817067e+005 2.268267859416e+005 2.268267859416e+005 2.268267859416e+005 2.268267859416e+005 2.268267859416e+005 2.268267859416e+005 2.268267859416e+005 2.268267859416e+005 2.268267859416e+005 2.241102085170e+005 2.241102085170e+005 2.241102085170e+005 2.241102085170e+005 2.241102085170e+005 2.241102085170e+005 2.241102085170e+005 2.241102085170e+005 2.241102085170e+005 2.213443940721e+005 2.213443940721e+005 2.213443940721e+005 2.213443940721e+005 2.213443940721e+005 2.213443940721e+005 2.213443940721e+005 2.213443940721e+005 2.213443940721e+005 2.185251415903e+005 2.185251415903e+005 2.185251415903e+005 2.185251415903e+005 2.185251415903e+005 2.185251415903e+005 2.185251415903e+005 2.185251415903e+005 2.185251415903e+005 2.156478602207e+005 2.156478602207e+005 2.156478602207e+005 2.156478602207e+005 2.156478602207e+005 2.156478602207e+005 2.156478602207e+005 2.156478602207e+005 2.156478602207e+005 2.127075176825e+005 2.127075176825e+005 2.127075176825e+005 2.127075176825e+005 2.127075176825e+005 2.127075176825e+005 2.127075176825e+005 2.127075176825e+005 2.127075176825e+005 2.096985796909e+005 2.096985796909e+005 2.096985796909e+005 2.096985796909e+005 2.096985796909e+005 2.096985796909e+005 2.096985796909e+005 2.096985796909e+005 2.096985796909e+005 2.066149384435e+005 2.066149384435e+005 2.066149384435e+005 2.066149384435e+005 2.066149384435e+005 2.066149384435e+005 2.066149384435e+005 2.066149384435e+005 2.066149384435e+005 2.034498276823e+005 2.034498276823e+005 2.034498276823e+005 2.034498276823e+005 2.034498276823e+005 2.034498276823e+005 2.034498276823e+005 2.034498276823e+005 2.034498276823e+005 2.001957211551e+005 2.001957211551e+005 2.001957211551e+005 2.001957211551e+005 2.001957211551e+005 2.001957211551e+005 2.001957211551e+005 2.001957211551e+005 2.001957211551e+005 1.968442103733e+005 1.968442103733e+005 1.968442103733e+005 1.968442103733e+005 1.968442103733e+005 1.968442103733e+005 1.968442103733e+005 1.968442103733e+005 1.968442103733e+005 1.933858563124e+005 1.933858563124e+005 1.933858563124e+005 1.933858563124e+005 1.933858563124e+005 1.933858563124e+005 1.933858563124e+005 1.933858563124e+005 1.933858563124e+005 1.898100079764e+005 1.898100079764e+005 1.898100079764e+005 1.898100079764e+005 1.898100079764e+005 1.898100079764e+005 1.898100079764e+005 1.898100079764e+005 1.898100079764e+005 1.861045783482e+005 1.861045783482e+005 1.861045783482e+005 1.861045783482e+005 1.861045783482e+005 1.861045783482e+005 1.861045783482e+005 1.861045783482e+005 1.861045783482e+005 1.822557648381e+005 1.822557648381e+005 1.822557648381e+005 1.822557648381e+005 1.822557648381e+005 1.822557648381e+005 1.822557648381e+005 1.822557648381e+005 1.822557648381e+005 1.782476964350e+005 1.782476964350e+005 1.782476964350e+005 1.782476964350e+005 1.782476964350e+005 1.782476964350e+005 1.782476964350e+005 1.782476964350e+005 1.782476964350e+005 1.740619825736e+005 1.740619825736e+005 1.740619825736e+005 1.740619825736e+005 1.740619825736e+005 1.740619825736e+005 1.740619825736e+005 1.740619825736e+005 1.740619825736e+005 1.696771280552e+005 1.696771280552e+005 1.696771280552e+005 1.696771280552e+005 1.696771280552e+005 1.696771280552e+005 1.696771280552e+005 1.696771280552e+005 1.696771280552e+005 1.650677622138e+005 1.650677622138e+005 1.650677622138e+005 1.650677622138e+005 1.650677622138e+005 1.650677622138e+005 1.650677622138e+005 1.650677622138e+005 1.650677622138e+005 1.602036056452e+005 1.602036056452e+005 1.602036056452e+005 1.602036056452e+005 1.602036056452e+005 1.602036056452e+005 1.602036056452e+005 1.602036056452e+005 1.602036056452e+005 1.550480584847e+005 1.550480584847e+005 1.550480584847e+005 1.550480584847e+005 1.550480584847e+005 1.550480584847e+005 1.550480584847e+005 1.550480584847e+005 1.550480584847e+005 1.495562302558e+005 1.495562302558e+005 1.495562302558e+005 1.495562302558e+005 1.495562302558e+005 1.495562302558e+005 1.495562302558e+005 1.495562302558e+005 1.495562302558e+005 1.436721238249e+005 1.436721238249e+005 1.436721238249e+005 1.436721238249e+005 1.436721238249e+005 1.436721238249e+005 1.436721238249e+005 1.436721238249e+005 1.436721238249e+005 1.373244981310e+005 1.373244981310e+005 1.373244981310e+005 1.373244981310e+005 1.373244981310e+005 1.373244981310e+005 1.373244981310e+005 1.373244981310e+005 1.373244981310e+005 1.304205903848e+005 1.304205903848e+005 1.304205903848e+005 1.304205903848e+005 1.304205903848e+005 1.304205903848e+005 1.304205903848e+005 1.304205903848e+005 1.304205903848e+005 1.228362171172e+005 1.228362171171e+005 1.228362171171e+005 1.228362171171e+005 1.228362171171e+005 1.228362171171e+005 1.228362171171e+005 1.228362171172e+005 1.228362171171e+005 1.143994200372e+005 1.143994200372e+005 1.143994200371e+005 1.143994200371e+005 1.143994200371e+005 1.143994200371e+005 1.143994200371e+005 1.143994200371e+005 1.143994200371e+005 1.048618483851e+005 1.048618483851e+005 1.048618483851e+005 1.048618483850e+005 1.048618483850e+005 1.048618483850e+005 1.048618483849e+005 1.048618483850e+005 1.048618483850e+005 9.384503524301e+004 9.384503524317e+004 9.384503524290e+004 9.384503524284e+004 9.384503524283e+004 9.384503524274e+004 9.384503524286e+004 9.384503524275e+004 9.384503524273e+004 8.073056032552e+004 8.073056032538e+004 8.073056032619e+004 8.073056032617e+004 8.073056032605e+004 8.073056032580e+004 8.073056032533e+004 8.073056032547e+004 8.073056032581e+004 6.441077769958e+004 6.441077769823e+004 6.441077769473e+004 6.441077769372e+004 6.441077769348e+004 6.441077769602e+004 6.441077769716e+004 6.441077769689e+004 6.441077769385e+004 4.267414675638e+004 4.267414676617e+004 4.267414677767e+004 4.267414678331e+004 4.267414678626e+004 4.267414677384e+004 4.267414677213e+004 4.267414677067e+004 4.267414678532e+004 1.119866758729e+004 1.119866751692e+004 1.119866745451e+004 1.119866741441e+004 1.119866739881e+004 1.119866748006e+004 1.119866748938e+004 1.119866750126e+004 1.119866742152e+004 -2.849584041927e+004 -2.849583883294e+004 -2.849583825428e+004 -2.849583768792e+004 -2.849583717843e+004 -2.849583885156e+004 -2.849583845889e+004 -2.849583918878e+004 -2.849583727340e+004 -6.809238606354e+004 -6.809238930002e+004 -6.809238954168e+004 -6.809238912404e+004 -6.809238834563e+004 -6.809238984938e+004 -6.809238951706e+004 -6.809238970805e+004 -6.809239032686e+004 -1.074230916788e+005 -1.074230950507e+005 -1.074230940075e+005 -1.074230939037e+005 -1.074230967710e+005 -1.074230947535e+005 -1.074230960802e+005 -1.074230961082e+005 -1.074230964049e+005 -1.465025997388e+005 -1.465026012544e+005 -1.465026016183e+005 -1.465026004837e+005 -1.465026017570e+005 -1.465026021359e+005 -1.465026032458e+005 -1.465026017813e+005 -1.465026020145e+005 -1.853438968220e+005 -1.853438956734e+005 -1.853438958215e+005 -1.853438970671e+005 -1.853438956393e+005 -1.853438964171e+005 -1.853438964922e+005 -1.853438960327e+005 -1.853438955970e+005 -2.239585929006e+005 -2.239585940487e+005 -2.239585924287e+005 -2.239585929968e+005 -2.239585927754e+005 -2.239585935025e+005 -2.239585935596e+005 -2.239585924632e+005 -2.239585936893e+005 -2.623572579493e+005 -2.623572550157e+005 -2.623572543281e+005 -2.623572557749e+005 -2.623572548656e+005 -2.623572540863e+005 -2.623572546818e+005 -2.623572541334e+005 -2.623572555127e+005 -3.005497180418e+005 -3.005497150132e+005 -3.005497135226e+005 -3.005497148551e+005 -3.005497149720e+005 -3.005497152671e+005 -3.005497150749e+005 -3.005497155443e+005 -3.005497134636e+005 -3.385453809500e+005 -3.385453798948e+005 -3.385453785660e+005 -3.385453794135e+005 -3.385453799787e+005 -3.385453797913e+005 -3.385453799514e+005 -3.385453786985e+005 -3.385453786854e+005 -3.763534819390e+005 -3.763534800086e+005 -3.763534788152e+005 -3.763534791513e+005 -3.763534786668e+005 -3.763534771745e+005 -3.763534789297e+005 -3.763534783597e+005 -3.763534778279e+005 -4.139832620761e+005 -4.139832592108e+005 -4.139832585190e+005 -4.139832566716e+005 -4.139832567590e+005 -4.139832564857e+005 -4.139832567436e+005 -4.139832554168e+005 -4.139832546938e+005 -4.514441004514e+005 -4.514440995159e+005 -4.514440984795e+005 -4.514440971053e+005 -4.514440964999e+005 -4.514440956102e+005 -4.514440957129e+005 -4.514440943175e+005 -4.514440948392e+005 -4.887455842759e+005 -4.887455841241e+005 -4.887455819520e+005 -4.887455832442e+005 -4.887455809386e+005 -4.887455805029e+005 -4.887455802197e+005 -4.887455790756e+005 -4.887455779803e+005 -5.258975173913e+005 -5.258975163995e+005 -5.258975173322e+005 -5.258975150528e+005 -5.258975147252e+005 -5.258975135696e+005 -5.258975133396e+005 -5.258975131436e+005 -5.258975120695e+005 -5.629099139649e+005 -5.629099155425e+005 -5.629099149043e+005 -5.629099147229e+005 -5.629099132891e+005 -5.629099128570e+005 -5.629099119990e+005 -5.629099106030e+005 -5.629099099277e+005 -5.997929825848e+005 -5.997929844642e+005 -5.997929851939e+005 -5.997929837276e+005 -5.997929821157e+005 -5.997929822168e+005 -5.997929806440e+005 -5.997929792935e+005 -5.997929791363e+005 -6.365570851403e+005 -6.365570874767e+005 -6.365570873295e+005 -6.365570872946e+005 -6.365570863217e+005 -6.365570845462e+005 -6.365570833551e+005 -6.365570830592e+005 -6.365570823830e+005 -6.732127192428e+005 -6.732127173008e+005 -6.732127181626e+005 -6.732127180964e+005 -6.732127177809e+005 -6.732127152200e+005 -6.732127141963e+005 -6.732127149948e+005 -6.732127146643e+005 -7.097704750692e+005 -7.097704745027e+005 -7.097704742657e+005 -7.097704741688e+005 -7.097704731993e+005 -7.097704709621e+005 -7.097704716067e+005 -7.097704709750e+005 -7.097704713059e+005 -7.462410335755e+005 -7.462410327979e+005 -7.462410327494e+005 -7.462410313196e+005 -7.462410311674e+005 -7.462410301227e+005 -7.462410298442e+005 -7.462410292538e+005 -7.462410299621e+005 -7.826351317109e+005 -7.826351308100e+005 -7.826351311805e+005 -7.826351308129e+005 -7.826351296777e+005 -7.826351295582e+005 -7.826351289379e+005 -7.826351288679e+005 -7.826351276745e+005 -8.189635544233e+005 -8.189635550941e+005 -8.189635558694e+005 -8.189635554086e+005 -8.189635546723e+005 -8.189635549725e+005 -8.189635543228e+005 -8.189635543569e+005 -8.189635540836e+005 -8.552371254107e+005 -8.552371261814e+005 -8.552371267247e+005 -8.552371261399e+005 -8.552371260942e+005 -8.552371263162e+005 -8.552371255003e+005 -8.552371260316e+005 -8.552371261016e+005 -8.914666894114e+005 -8.914666895253e+005 -8.914666898688e+005 -8.914666899943e+005 -8.914666888512e+005 -8.914666886907e+005 -8.914666889950e+005 -8.914666892606e+005 -8.914666891031e+005 -9.276631063304e+005 -9.276631071527e+005 -9.276631077845e+005 -9.276631077118e+005 -9.276631074072e+005 -9.276631067287e+005 -9.276631067286e+005 -9.276631068987e+005 -9.276631070109e+005 -9.638372519186e+005 -9.638372523505e+005 -9.638372526023e+005 -9.638372524522e+005 -9.638372525454e+005 -9.638372520863e+005 -9.638372520859e+005 -9.638372522497e+005 -9.638372520918e+005 -1.000000000000e+006 -1.000000000000e+006 -1.000000000000e+006 -1.000000000000e+006 -1.000000000000e+006 -1.000000000000e+006 -1.000000000000e+006 -1.000000000000e+006 -1.000000000000e+006 
        </DataArray>
        <DataArray type="Float64" Name="NONWET_PRESSURE" format="ascii">