<?xml version="1.0"?>
<VTKFile type="UnstructuredGrid" version="0.1" byte_order="LittleEndian">
  <UnstructuredGrid>
    <Piece NumberOfPoints="909" NumberOfCells="800">
      <Points>
        <DataArray type="Float64" NumberOfComponents="3" format="ascii">
          0.000000000000e+000 0.000000000000e+000 0.000000000000e+000
          2.000000000000e+000 0.000000000000e+000 0.000000000000e+000
          2.000000000000e+000 2.500000000000e+000 0.000000000000e+000
          0.000000000000e+000 2.500000000000e+000 0.000000000000e+000
          2.000000000000e+000 5.000000000000e+000 0.000000000000e+000
          0.000000000000e+000 5.000000000000e+000 0.000000000000e+000
          2.000000000000e+000 7.500000000000e+000 0.000000000000e+000
          0.000000000000e+000 7.500000000000e+000 0.000000000000e+000
          2.000000000000e+000 1.000000000000e+001 0.000000000000e+000
          0.000000000000e+000 1.000000000000e+001 0.000000000000e+000
          2.000000000000e+000 1.250000000000e+001 0.000000000000e+000
          0.000000000000e+000 1.250000000000e+001 0.000000000000e+000
          2.000000000000e+000 1.500000000000e+001 0.000000000000e+000
          0.000000000000e+000 1.500000000000e+001 0.000000000000e+000
          2.000000000000e+000 1.750000000000e+001 0.000000000000e+000
          0.000000000000e+000 1.750000000000e+001 0.000000000000e+000
          2.000000000000e+000 2.000000000000e+001 0.000000000000e+000
          0.000000000000e+000 2.000000000000e+001 0.000000000000e+000
          4.000000000000e+000 0.000000000000e+000 0.000000000000e+000
          4.000000000000e+000 2.500000000000e+000 0.000000000000e+000
          4.000000000000e+000 5.000000000000e+000 0.000000000000e+000
          4.000000000000e+000 7.500000000000e+000 0.000000000000e+000
          4.000000000000e+000 1.000000000000e+001 0.000000000000e+000
          4.000000000000e+000 1.250000000000e+001 0.000000000000e+000
          4.000000000000e+000 1.500000000000e+001 0.000000000000e+000
          4.000000000000e+000 1.750000000000e+001 0.000000000000e+000
          4.000000000000e+000 2.000000000000e+001 0.000000000000e+000
          6.000000000000e+000 0.000000000000e+000 0.000000000000e+000
          6.000000000000e+000 2.500000000000e+000 0.000000000000e+000
          6.000000000000e+000 5.000000000000e+000 0.000000000000e+000
          6.000000000000e+000 7.500000000000e+000 0.000000000000e+000
          6.000000000000e+000 1.000000000000e+001 0.000000000000e+000
          6.000000000000e+000 1.250000000000e+001 0.000000000000e+000
          6.000000000000e+000 1.500000000000e+001 0.000000000000e+000
          6.000000000000e+000 1.750000000000e+001 0.000000000000e+000
          6.000000000000e+000 2.000000000000e+001 0.000000000000e+000
          8.000000000000e+000 0.000000000000e+000 0.000000000000e+000
          8.000000000000e+000 2.500000000000e+000 0.000000000000e+000
          8.000000000000e+000 5.000000000000e+000 0.000000000000e+000
          8.000000000000e+000 7.500000000000e+000 0.000000000000e+000
          8.000000000000e+000 1.000000000000e+001 0.000000000000e+000
          8.000000000000e+000 1.250000000000e+001 0.000000000000e+000
          8.000000000000e+000 1.500000000000e+001 0.000000000000e+000
          8.000000000000e+000 1.750000000000e+001 0.000000000000e+000
          8.000000000000e+000 2.000000000000e+001 0.000000000000e+000
          1.000000000000e+001 0.000000000000e+000 0.000000000000e+000
          1.000000000000e+001 2.500000000000e+000 0.000000000000e+000
          1.000000000000e+001 5.000000000000e+000 0.000000000000e+000
          1.000000000000e+001 7.500000000000e+000 0.000000000000e+000
          1.000000000000e+001 1.000000000000e+001 0.000000000000e+000
          1.000000000000e+001 1.250000000000e+001 0.000000000000e+000
          1.000000000000e+001 1.500000000000e+001 0.000000000000e+000
          1.000000000000e+001 1.750000000000e+001 0.000000000000e+000
          1.000000000000e+001 2.000000000000e+001 0.000000000000e+000
          1.200000000000e+001 0.000000000000e+000 0.000000000000e+000
          1.200000000000e+001 2.500000000000e+000 0.000000000000e+000
          1.200000000000e+001 5.000000000000e+000 0.000000000000e+000
          1.200000000000e+001 7.500000000000e+000 0.000000000000e+000
          1.200000000000e+001 1.000000000000e+001 0.000000000000e+000
          1.200000000000e+001 1.250000000000e+001 0.000000000000e+000
          1.200000000000e+001 1.500000000000e+001 0.000000000000e+000
          1.200000000000e+001 1.750000000000e+001 0.000000000000e+000
          1.200000000000e+001 2.000000000000e+001 0.000000000000e+000
          1.400000000000e+001 0.000000000000e+000 0.000000000000e+000
          1.400000000000e+001 2.500000000000e+000 0.000000000000e+000
          1.400000000000e+001 5.000000000000e+000 0.000000000000e+000
          1.400000000000e+001 7.500000000000e+000 0.000000000000e+000
          1.400000000000e+001 1.000000000000e+001 0.000000000000e+000
          1.400000000000e+001 1.250000000000e+001 0.000000000000e+000
          1.400000000000e+001 1.500000000000e+001 0.000000000000e+000
          1.400000000000e+001 1.750000000000e+001 0.000000000000e+000
          1.400000000000e+001 2.000000000000e+001 0.000000000000e+000
          1.600000000000e+001 0.000000000000e+000 0.000000000000e+000
          1.600000000000e+001 2.500000000000e+000 0.000000000000e+000
          1.600000000000e+001 5.000000000000e+000 0.000000000000e+000
          1.600000000000e+001 7.500000000000e+000 0.000000000000e+000
          1.600000000000e+001 1.000000000000e+001 0.000000000000e+000
          1.600000000000e+001 1.250000000000e+001 0.000000000000e+000
          1.600000000000e+001 1.500000000000e+001 0.000000000000e+000
          1.600000000000e+001 1.750000000000e+001 0.000000000000e+000
          1.600000000000e+001 2.000000000000e+001 0.000000000000e+000
          1.800000000000e+001 0.000000000000e+000 0.000000000000e+000
          1.800000000000e+001 2.500000000000e+000 0.000000000000e+000
          1.800000000000e+001 5.000000000000e+000 0.000000000000e+000
          1.800000000000e+001 7.500000000000e+000 0.000000000000e+000
          1.800000000000e+001 1.000000000000e+001 0.000000000000e+000
          1.800000000000e+001 1.250000000000e+001 0.000000000000e+000
          1.800000000000e+001 1.500000000000e+001 0.000000000000e+000
          1.800000000000e+001 1.750000000000e+001 0.000000000000e+000
          1.800000000000e+001 2.000000000000e+001 0.000000000000e+000
          2.000000000000e+001 0.000000000000e+000 0.000000000000e+000
          2.000000000000e+001 2.500000000000e+000 0.000000000000e+000
          2.000000000000e+001 5.000000000000e+000 0.000000000000e+000
          2.000000000000e+001 7.500000000000e+000 0.000000000000e+000
          2.000000000000e+001 1.000000000000e+001 0.000000000000e+000
          2.000000000000e+001 1.250000000000e+001 0.000000000000e+000
          2.000000000000e+001 1.500000000000e+001 0.000000000000e+000
          2.000000000000e+001 1.750000000000e+001 0.000000000000e+000
          2.000000000000e+001 2.000000000000e+001 0.000000000000e+000
          2.200000000000e+001 0.000000000000e+000 0.000000000000e+000
          2.200000000000e+001 2.500000000000e+000 0.000000000000e+000
          2.200000000000e+001 5.000000000000e+000 0.000000000000e+000
          2.200000000000e+001 7.500000000000e+000 0.000000000000e+000
          2.200000000000e+001 1.000000000000e+001 0.000000000000e+000
          2.200000000000e+001 1.250000000000e+001 0.000000000000e+000
          2.200000000000e+001 1.500000000000e+001 0.000000000000e+000
          2.200000000000e+001 1.750000000000e+001 0.000000000000e+000
          2.200000000000e+001 2.000000000000e+001 0.000000000000e+000
          2.400000000000e+001 0.000000000000e+000 0.000000000000e+000
          2.400000000000e+001 2.500000000000e+000 0.000000000000e+000
          2.400000000000e+001 5.000000000000e+000 0.000000000000e+000
          2.400000000000e+001 7.500000000000e+000 0.000000000000e+000
          2.400000000000e+001 1.000000000000e+001 0.000000000000e+000
          2.400000000000e+001 1.250000000000e+001 0.000000000000e+000
          2.400000000000e+001 1.500000000000e+001 0.000000000000e+000
          2.400000000000e+001 1.750000000000e+001 0.000000000000e+000
          2.400000000000e+001 2.000000000000e+001 0.000000000000e+000
          2.600000000000e+001 0.000000000000e+000 0.000000000000e+000
          2.600000000000e+001 2.500000000000e+000 0.000000000000e+000
          2.600000000000e+001 5.000000000000e+000 0.000000000000e+000
          2.600000000000e+001 7.500000000000e+000 0.000000000000e+000
          2.600000000000e+001 1.000000000000e+001 0.000000000000e+000
          2.600000000000e+001 1.250000000000e+001 0.000000000000e+000
          2.600000000000e+001 1.500000000000e+001 0.000000000000e+000
          2.600000000000e+001 1.750000000000e+001 0.000000000000e+000
          2.600000000000e+001 2.000000000000e+001 0.000000000000e+000
          2.800000000000e+001 0.000000000000e+000 0.000000000000e+000
          2.800000000000e+001 2.500000000000e+000 0.000000000000e+000
          2.800000000000e+001 5.000000000000e+000 0.000000000000e+000
          2.800000000000e+001 7.500000000000e+000 0.000000000000e+000
          2.800000000000e+001 1.000000000000e+001 0.000000000000e+000
          2.800000000000e+001 1.250000000000e+001 0.000000000000e+000
          2.800000000000e+001 1.500000000000e+001 0.000000000000e+000
          2.800000000000e+001 1.750000000000e+001 0.000000000000e+000
          2.800000000000e+001 2.000000000000e+001 0.000000000000e+000
          3.000000000000e+001 0.000000000000e+000 0.000000000000e+000
          3.000000000000e+001 2.500000000000e+000 0.000000000000e+000
          3.000000000000e+001 5.000000000000e+000 0.000000000000e+000
          3.000000000000e+001 7.500000000000e+000 0.000000000000e+000
[...]
      <PointData Scalars="CAPILLARY_PRESSURE">
        <DataArray type="Float64" Name="CAPILLARY_PRESSURE" format="ascii">
          3.868409420588e+005 3.850398302500e+005 3.850398302500e+005 3.868409420589e+005 3.850398302500e+005 3.868409420588e+005 3.850398302500e+005 3.868409420588e+005 3.850398302500e+005 3.868409420589e+005 3.850398302500e+005 3.868409420589e+005 3.850398302500e+005 3.868409420588e+005 3.850398302500e+005 3.868409420589e+005 3.850398302500e+005 3.868409420589e+005 3.832239235145e+005 3.832239235145e+005 3.832239235145e+005 3.832239235145e+005 3.832239235145e+005 3.832239235145e+005 3.832239235145e+005 3.832239235145e+005 3.832239235145e+005 3.813929516219e+005 3.813929516218e+005 3.813929516219e+005 3.813929516219e+005 3.813929516219e+005 3.813929516219e+005 3.813929516219e+005 3.813929516219e+005 3.813929516219e+005 3.795463267267e+005 3.795463267268e+005 3.795463267268e+005 3.795463267268e+005 3.795463267267e+005 3.795463267268e+005 3.795463267268e+005 3.795463267267e+005 3.795463267268e+005 3.776837808830e+005 3.776837808829e+005 3.776837808830e+005 3.776837808830e+005 3.776837808830e+005 3.776837808830e+005 3.776837808830e+005 3.776837808830e+005 3.776837808830e+005 3.758049287282e+005 3.758049287283e+005 3.758049287282e+005 3.758049287283e+005 3.758049287283e+005 3.758049287282e+005 3.758049287283e+005 3.758049287283e+005 3.758049287283e+005 3.739094079665e+005 3.739094079665e+005 3.739094079665e+005 3.739094079665e+005 3.739094079665e+005 3.739094079665e+005 3.739094079665e+005 3.739094079665e+005 3.739094079665e+005 3.719968131158e+005 3.719968131157e+005 3.719968131157e+005 3.719968131157e+005 3.719968131158e+005 3.719968131158e+005 3.719968131157e+005 3.719968131158e+005 3.719968131156e+005 3.700667317541e+005 3.700667317541e+005 3.700667317541e+005 3.700667317541e+005 3.700667317540e+005 3.700667317541e+005 3.700667317541e+005 3.700667317540e+005 3.700667317540e+005 3.681187316947e+005 3.681187316946e+005 3.681187316947e+005 3.681187316946e+005 3.681187316947e+005 3.681187316946e+005 3.681187316947e+005 3.681187316946e+005 3.681187316947e+005 3.661523659436e+005 3.661523659436e+005 3.661523659437e+005 3.661523659437e+005 3.661523659436e+005 3.661523659437e+005 3.661523659436e+005 3.661523659437e+005 3.661523659436e+005 3.641671700166e+005 3.641671700166e+005 3.641671700167e+005 3.641671700166e+005 3.641671700166e+005 3.641671700166e+005 3.641671700166e+005 3.641671700166e+005 3.641671700166e+005 3.621626611327e+005 3.621626611327e+005 3.621626611328e+005 3.621626611327e+005 3.621626611328e+005 3.621626611327e+005 3.621626611328e+005 3.621626611327e+005 3.621626611327e+005 3.601383369968e+005 3.601383369968e+005 3.601383369968e+005 3.601383369968e+005 3.601383369968e+005 3.601383369969e+005 3.601383369969e+005 3.601383369968e+005 3.601383369968e+005 3.580936745993e+005 3.580936745993e+005 3.580936745993e+005 3.580936745993e+005 3.580936745993e+005 3.580936745993e+005 3.580936745993e+005 3.580936745993e+005 3.580936745994e+005 3.560281290338e+005 3.560281290338e+005 3.560281290339e+005 3.560281290339e+005 3.560281290339e+005 3.560281290339e+005 3.560281290339e+005 3.560281290339e+005 3.560281290339e+005 3.539411322610e+005 3.539411322610e+005 3.539411322610e+005 3.539411322610e+005 3.539411322610e+005 3.539411322611e+005 3.539411322610e+005 3.539411322611e+005 3.539411322610e+005 3.518320917937e+005 3.518320917938e+005 3.518320917938e+005 3.518320917938e+005 3.518320917938e+005 3.518320917938e+005 3.518320917938e+005 3.518320917938e+005 3.518320917938e+005 3.497003892828e+005 3.497003892826e+005 3.497003892827e+005 3.497003892827e+005 3.497003892827e+005 3.497003892827e+005 3.497003892827e+005 3.497003892827e+005 3.497003892826e+005 3.475453789837e+005 3.475453789837e+005 3.475453789837e+005 3.475453789837e+005 3.475453789838e+005 3.475453789838e+005 3.475453789838e+005 3.475453789837e+005 3.475453789837e+005 3.453663860964e+005 3.453663860963e+005 3.453663860963e+005 3.453663860963e+005 3.453663860964e+005 3.453663860963e+005 3.453663860964e+005 3.453663860963e+005 3.453663860964e+005 3.431627049634e+005 3.431627049635e+005 3.431627049634e+005 3.431627049635e+005 3.431627049635e+005 3.431627049635e+005 3.431627049635e+005 3.431627049635e+005 3.431627049635e+005 3.409335971212e+005 3.409335971211e+005 3.409335971211e+005 3.409335971211e+005 3.409335971212e+005 3.409335971211e+005 3.409335971212e+005 3.409335971212e+005 3.409335971212e+005 3.386782891863e+005 3.386782891864e+005 3.386782891863e+005 3.386782891864e+005 3.386782891863e+005 3.386782891864e+005 3.386782891864e+005 3.386782891863e+005 3.386782891864e+005 3.363959705674e+005 3.363959705674e+005 3.363959705674e+005 3.363959705674e+005 3.363959705675e+005 3.363959705673e+005 3.363959705674e+005 3.363959705674e+005 3.363959705674e+005 3.340857909787e+005 3.340857909786e+005 3.340857909786e+005 3.340857909786e+005 3.340857909786e+005 3.340857909786e+005 3.340857909786e+005 3.340857909786e+005 3.340857909786e+005 3.317468577389e+005 3.317468577389e+005 3.317468577388e+005 3.317468577388e+005 3.317468577389e+005 3.317468577388e+005 3.317468577389e+005 3.317468577388e+005 3.317468577390e+005 3.293782328298e+005 3.293782328298e+005 3.293782328298e+005 3.293782328297e+005 3.293782328298e+005 3.293782328298e+005 3.293782328297e+005 3.293782328298e+005 3.293782328297e+005 3.269789296879e+005 3.269789296879e+005 3.269789296879e+005 3.269789296879e+005 3.269789296879e+005 3.269789296879e+005 3.269789296880e+005 3.269789296879e+005 3.269789296879e+005 3.245479096993e+005 3.245479096993e+005 3.245479096993e+005 3.245479096993e+005 3.245479096993e+005 3.245479096993e+005 3.245479096993e+005 3.245479096993e+005 3.245479096993e+005 3.220840783639e+005 3.220840783638e+005 3.220840783639e+005 3.220840783638e+005 3.220840783638e+005 3.220840783639e+005 3.220840783637e+005 3.220840783638e+005 3.220840783638e+005 3.195862810896e+005 3.195862810896e+005 3.195862810896e+005 3.195862810896e+005 3.195862810896e+005 3.195862810896e+005 3.195862810896e+005 3.195862810895e+005 3.195862810896e+005 3.170532985740e+005 3.170532985740e+005 3.170532985740e+005 3.170532985740e+005 3.170532985740e+005 3.170532985740e+005 3.170532985740e+005 3.170532985740e+005 3.170532985739e+005 3.144838417214e+005 3.144838417214e+005 3.144838417214e+005 3.144838417214e+005 3.144838417214e+005 3.144838417214e+005 3.144838417214e+005 3.144838417214e+005 3.144838417214e+005 3.118765460388e+005 3.118765460388e+005 3.118765460388e+005 3.118765460388e+005 3.118765460388e+005 3.118765460388e+005 3.118765460388e+005 3.118765460387e+005 3.118765460387e+005 3.092299654449e+005 3.092299654449e+005 3.092299654449e+005 3.092299654449e+005 3.092299654449e+005 3.092299654450e+005 3.092299654449e+005 3.092299654449e+005 3.092299654449e+005 3.065425654153e+005 3.065425654153e+005 3.065425654153e+005 3.065425654153e+005 3.065425654153e+005 3.065425654153e+005 3.065425654153e+005 3.065425654153e+005 3.065425654153e+005 3.038127153754e+005 3.038127153755e+005 3.038127153755e+005 3.038127153755e+005 3.038127153755e+005 3.038127153755e+005 3.038127153755e+005 3.038127153755e+005 3.038127153755e+005 3.010386802405e+005 3.010386802405e+005 3.010386802405e+005 3.010386802405e+005 3.010386802405e+005 3.010386802405e+005 3.010386802405e+005 3.010386802405e+005 3.010386802405e+005 2.982186109810e+005 2.982186109809e+005 2.982186109810e+005 2.982186109809e+005 2.982186109809e+005 2.982186109809e+005 2.982186109809e+005 2.982186109810e+005 2.982186109810e+005 2.953505340776e+005 2.953505340776e+005 2.953505340777e+005 2.953505340776e+005 2.953505340776e+005 2.953505340777e+005 2.953505340776e+005 2.953505340777e+005 2.953505340777e+005 2.924323397007e+005 2.924323397007e+005 2.924323397007e+005 2.924323397007e+005 2.924323397007e+005 2.924323397006e+005 2.924323397008e+005 2.924323397008e+005 2.924323397007e+005 2.894617684230e+005 2.894617684230e+005 2.894617684230e+005 2.894617684230e+005 2.894617684229e+005 2.894617684230e+005 2.894617684230e+005 2.894617684230e+005 2.894617684230e+005 2.864363962399e+005 2.864363962399e+005 2.864363962399e+005 2.864363962399e+005 2.864363962400e+005 2.864363962399e+005 2.864363962399e+005 2.864363962400e+005 2.864363962399e+005 2.833536176283e+005 2.833536176283e+005 2.833536176283e+005 2.833536176283e+005 2.833536176283e+005 2.833536176283e+005 2.833536176283e+005 2.833536176283e+005 2.833536176283e+005 2.802106263239e+005 2.802106263239e+005 2.802106263239e+005 2.802106263239e+005 2.802106263239e+005 2.802106263239e+005 2.802106263239e+005 2.802106263239e+005 2.802106263238e+005 2.770043934333e+005 2.770043934334e+005 2.770043934333e+005 2.770043934334e+005 2.770043934334e+005 2.770043934334e+005 2.770043934334e+005 2.770043934333e+005 2.770043934334e+005 2.737316424217e+005 2.737316424216e+005 2.737316424217e+005 2.737316424217e+005 2.737316424217e+005 2.737316424216e+005 2.737316424216e+005 2.737316424217e+005 2.737316424217e+005 2.703888204146e+005 2.703888204146e+005 2.703888204146e+005 2.703888204146e+005 2.703888204146e+005 2.703888204146e+005 2.703888204146e+005 2.703888204146e+005 2.703888204146e+005 2.669720651402e+005 2.669720651402e+005 2.669720651401e+005 2.669720651401e+005 2.669720651402e+005 2.669720651402e+005 2.669720651402e+005 2.669720651402e+005 2.669720651402e+005 2.634771666770e+005 2.634771666770e+005 2.634771666770e+005 2.634771666770e+005 2.634771666770e+005 2.634771666771e+005 2.634771666770e+005 2.634771666770e+005 2.634771666770e+005 2.598995229884e+005 2.598995229884e+005 2.598995229884e+005 2.598995229884e+005 2.598995229885e+005 2.598995229884e+005 2.598995229884e+005 2.598995229884e+005 2.598995229885e+005 2.562340879750e+005 2.562340879749e+005 2.562340879749e+005 2.562340879749e+005 2.562340879749e+005 2.562340879749e+005 2.562340879749e+005 2.562340879749e+005 2.562340879748e+005 2.524753104625e+005 2.524753104625e+005 2.524753104625e+005 2.524753104625e+005 2.524753104625e+005 2.524753104624e+005 2.524753104625e+005 2.524753104624e+005 2.524753104626e+005 2.486170621380e+005 2.486170621380e+005 2.486170621380e+005 2.486170621380e+005 2.486170621380e+005 2.486170621381e+005 2.486170621380e+005 2.486170621380e+005 2.486170621380e+005 2.446525519071e+005 2.446525519071e+005 2.446525519071e+005 2.446525519071e+005 2.446525519071e+005 2.446525519071e+005 2.446525519071e+005 2.446525519071e+005 2.446525519071e+005 2.405742234479e+005 2.405742234479e+005 2.405742234480e+005 2.405742234479e+005 2.405742234479e+005 2.405742234480e+005 2.405742234479e+005 2.405742234480e+005 2.405742234480e+005 2.363736317954e+005 2.363736317954e+005 2.363736317954e+005 2.363736317954e+005 2.363736317955e+005 2.363736317955e+005 2.363736317954e+005 2.363736317955e+005 2.363736317955e+005 2.320412935274e+005 2.320412935275e+005 2.320412935274e+005 2.320412935275e+005 2.320412935275e+005 2.320412935275e+005 2.320412935275e+005 2.320412935275e+005 2.320412935275e+005 2.275665034045e+005 2.275665034045e+005 2.275665034046e+005 2.275665034046e+005 2.275665034046e+005 2.275665034046e+005 2.275665034046e+005 2.275665034046e+005 2.275665034047e+005 2.229371079407e+005 2.229371079407e+005 2.229371079406e+005 2.229371079408e+005 2.229371079406e+005 2.229371079407e+005 2.229371079407e+005 2.229371079408e+005 2.229371079407e+005 2.181392230436e+005 2.181392230435e+005 2.181392230436e+005 2.181392230435e+005 2.181392230437e+005 2.181392230436e+005 2.181392230436e+005 2.181392230436e+005 2.181392230436e+005 2.131568780424e+005 2.131568780424e+005 2.131568780423e+005 2.131568780424e+005 2.131568780423e+005 2.131568780424e+005 2.131568780423e+005 2.131568780424e+005 2.131568780424e+005 2.079715612438e+005 2.079715612439e+005 2.079715612439e+005 2.079715612438e+005 2.079715612439e+005 2.079715612438e+005 2.079715612439e+005 2.079715612438e+005 2.079715612439e+005 2.025616313126e+005 2.025616313126e+005 2.025616313126e+005 2.025616313127e+005 2.025616313126e+005 2.025616313127e+005 2.025616313126e+005 2.025616313127e+005 2.025616313127e+005 1.969015426913e+005 1.969015426913e+005 1.969015426914e+005 1.969015426913e+005 1.969015426913e+005 1.969015426913e+005 1.969015426913e+005 1.969015426914e+005 1.969015426913e+005 1.909608105225e+005 1.909608105225e+005 1.909608105224e+005 1.909608105225e+005 1.909608105225e+005 1.909608105225e+005 1.909608105225e+005 1.909608105225e+005 1.909608105225e+005 1.847026083345e+005 1.847026083343e+005 1.847026083344e+005 1.847026083343e+005 1.847026083343e+005 1.847026083343e+005 1.847026083343e+005 1.847026083344e+005 1.847026083342e+005 1.780818385964e+005 1.780818385964e+005 1.780818385964e+005 1.780818385963e+005 1.780818385963e+005 1.780818385963e+005 1.780818385963e+005 1.780818385963e+005 1.780818385963e+005 1.710424064995e+005 1.710424064995e+005 1.710424064994e+005 1.710424064994e+005 1.710424064993e+005 1.710424064994e+005 1.710424064994e+005 1.710424064994e+005 1.710424064992e+005 1.635131921013e+005 1.635131921012e+005 1.635131921012e+005 1.635131921012e+005 1.635131921012e+005 1.635131921012e+005 1.635131921012e+005 1.635131921011e+005 1.635131921012e+005 1.554017921379e+005 1.554017921380e+005 1.554017921381e+005 1.554017921382e+005 1.554017921381e+005 1.554017921380e+005 1.554017921382e+005 1.554017921383e+005 1.554017921383e+005 1.465845311316e+005 1.465845311317e+005 1.465845311320e+005 1.465845311324e+005 1.465845311322e+005 1.465845311318e+005 1.465845311323e+005 1.465845311325e+005 1.465845311328e+005 1.368905030356e+005 1.368905030357e+005 1.368905030360e+005 1.368905030370e+005 1.368905030365e+005 1.368905030353e+005 1.368905030361e+005 1.368905030362e+005 1.368905030368e+005 1.260748075753e+005 1.260748075742e+005 1.260748075738e+005 1.260748075752e+005 1.260748075750e+005 1.260748075728e+005 1.260748075742e+005 1.260748075727e+005 1.260748075736e+005 1.137663099581e+005 1.137663099558e+005 1.137663099517e+005 1.137663099536e+005 1.137663099554e+005 1.137663099535e+005 1.137663099544e+005 1.137663099509e+005 1.137663099517e+005 9.935351262279e+004 9.935351262087e+004 9.935351261151e+004 9.935351261155e+004 9.935351261906e+004 9.935351261914e+004 9.935351262150e+004 9.935351261214e+004 9.935351261682e+004 8.172646402500e+004 8.172646403279e+004 8.172646402151e+004 8.172646401507e+004 8.172646402886e+004 8.172646403329e+004 8.172646403737e+004 8.172646402212e+004 8.172646403676e+004 5.856270638497e+004 5.856270641916e+004 5.856270641908e+004 5.856270639700e+004 5.856270641275e+004 5.856270641664e+004 5.856270642079e+004 5.856270640313e+004 5.856270644039e+004 2.415402952866e+004 2.415402963015e+004 2.415402966211e+004 2.415402961143e+004 2.415402960943e+004 2.415402960195e+004 2.415402960125e+004 2.415402958235e+004 2.415402966898e+004 -2.553317284838e+004 -2.553317170023e+004 -2.553317119658e+004 -2.553317181383e+004 -2.553317188419e+004 -2.553317206201e+004 -2.553317208203e+004 -2.553317224885e+004 -2.553317126537e+004 -7.693079572123e+004 -7.693079442863e+004 -7.693079311629e+004 -7.693079426258e+004 -7.693079493066e+004 -7.693079489456e+004 -7.693079513587e+004 -7.693079393251e+004 -7.693079361368e+004 -1.282988655257e+005 -1.282988637088e+005 -1.282988626439e+005 -1.282988630331e+005 -1.282988626032e+005 -1.282988611634e+005 -1.282988629631e+005 -1.282988624053e+005 -1.282988619359e+005 -1.796613736578e+005 -1.796613708053e+005 -1.796613701545e+005 -1.796613683776e+005 -1.796613685250e+005 -1.796613683002e+005 -1.796613685968e+005 -1.796613672883e+005 -1.796613665605e+005 -2.310119806491e+005 -2.310119797327e+005 -2.310119787219e+005 -2.310119773973e+005 -2.310119768316e+005 -2.310119759775e+005 -2.310119761091e+005 -2.310119747275e+005 -2.310119752549e+005 -2.823519441908e+005 -2.823519440468e+005 -2.823519418955e+005 -2.823519432172e+005 -2.823519409433e+005 -2.823519405343e+005 -2.823519402732e+005 -2.823519391402e+005 -2.823519380511e+005 -3.336812341352e+005 -3.336812331473e+005 -3.336812340955e+005 -3.336812318363e+005 -3.336812315309e+005 -3.336812303967e+005 -3.336812301825e+005 -3.336812299988e+005 -3.336812289252e+005 -3.849998268473e+005 -3.849998284283e+005 -3.849998277992e+005 -3.849998276309e+005 -3.849998262151e+005 -3.849998257965e+005 -3.849998249520e+005 -3.849998235631e+005 -3.849998228920e+005 -4.363077615859e+005 -4.363077634674e+005 -4.363077642034e+005 -4.363077627486e+005 -4.363077611456e+005 -4.363077612577e+005 -4.363077596917e+005 -4.363077583510e+005 -4.363077581981e+005 -4.876050706561e+005 -4.876050729934e+005 -4.876050728512e+005 -4.876050728251e+005 -4.876050718594e+005 -4.876050700899e+005 -4.876050689067e+005 -4.876050686167e+005 -4.876050679433e+005 -5.388917854992e+005 -5.388917835587e+005 -5.388917844235e+005 -5.388917843631e+005 -5.388917840538e+005 -5.388917814979e+005 -5.388917804795e+005 -5.388917812817e+005 -5.388917809523e+005 -5.901679269127e+005 -5.901679263463e+005 -5.901679261110e+005 -5.901679260192e+005 -5.901679250533e+005 -5.901679228209e+005 -5.901679234694e+005 -5.901679228398e+005 -5.901679231712e+005 -6.414335280374e+005 -6.414335272600e+005 -6.414335272134e+005 -6.414335257875e+005 -6.414335256378e+005 -6.414335245967e+005 -6.414335243202e+005 -6.414335237305e+005 -6.414335244407e+005 -6.926886159611e+005 -6.926886150613e+005 -6.926886154316e+005 -6.926886150666e+005 -6.926886139342e+005 -6.926886138171e+005 -6.926886131979e+005 -6.926886131293e+005 -6.926886119353e+005 -7.439332188138e+005 -7.439332194837e+005 -7.439332202598e+005 -7.439332198004e+005 -7.439332190656e+005 -7.439332193679e+005 -7.439332187198e+005 -7.439332187541e+005 -7.439332184815e+005 -7.951673686835e+005 -7.951673694544e+005 -7.951673699973e+005 -7.951673694145e+005 -7.951673693704e+005 -7.951673695933e+005 -7.951673687781e+005 -7.951673693104e+005 -7.951673693804e+005 -8.463910936625e+005 -8.463910937758e+005 -8.463910941198e+005 -8.463910942459e+005 -8.463910931045e+005 -8.463910929444e+005 -8.463910932494e+005 -8.463910935150e+005 -8.463910933579e+005 -8.976044198764e+005 -8.976044206987e+005 -8.976044213301e+005 -8.976044212581e+005 -8.976044209544e+005 -8.976044202766e+005 -8.976044202771e+005 -8.976044204475e+005 -8.976044205599e+005 -9.488073797877e+005 -9.488073802202e+005 -9.488073804724e+005 -9.488073803216e+005 -9.488073804147e+005 -9.488073799568e+005 -9.488073799568e+005 -9.488073801207e+005 -9.488073799632e+005 -1.000000000000e+006 -1.000000000000e+006 -1.000000000000e+006 -1.000000000000e+006 -1.000000000000e+006 -1.000000000000e+006 -1.000000000000e+006 -1.000000000000e+006 -1.000000000000e+006 
        </DataArray>
        <DataArray type="Float64" Name="NONWET_PRESSURE" format="ascii">