<?xml version="1.0"?>
<VTKFile type="UnstructuredGrid" version="0.1" byte_order="LittleEndian">
  <UnstructuredGrid>
    <Piece NumberOfPoints="909" NumberOfCells="800">
      <Points>
        <DataArray type="Float64" NumberOfComponents="3" format="ascii">
          0.000000000000e+000 0.000000000000e+000 0.000000000000e+000
          2.000000000000e+000 0.000000000000e+000 0.000000000000e+000
          2.000000000000e+000 2.500000000000e+000 0.000000000000e+000
          0.000000000000e+000 2.500000000000e+000 0.000000000000e+000
          2.000000000000e+000 5.000000000000e+000 0.000000000000e+000
          0.000000000000e+000 5.000000000000e+000 0.000000000000e+000
          2.000000000000e+000 7.500000000000e+000 0.000000000000e+000
          0.000000000000e+000 7.500000000000e+000 0.000000000000e+000
          2.000000000000e+000 1.000000000000e+001 0.000000000000e+000
          0.000000000000e+000 1.000000000000e+001 0.000000000000e+000
          2.000000000000e+000 1.250000000000e+001 0.000000000000e+000
          0.000000000000e+000 1.250000000000e+001 0.000000000000e+000
          2.000000000000e+000 1.500000000000e+001 0.000000000000e+000
          0.000000000000e+000 1.500000000000e+001 0.000000000000e+000
          2.000000000000e+000 1.750000000000e+001 0.000000000000e+000
          0.000000000000e+000 1.750000000000e+001 0.000000000000e+000
          2.000000000000e+000 2.000000000000e+001 0.000000000000e+000
          0.000000000000e+000 2.000000000000e+001 0.000000000000e+000
          4.000000000000e+000 0.000000000000e+000 0.000000000000e+000
          4.000000000000e+000 2.500000000000e+000 0.000000000000e+000
          4.000000000000e+000 5.000000000000e+000 0.000000000000e+000
          4.000000000000e+000 7.500000000000e+000 0.000000000000e+000
          4.000000000000e+000 1.000000000000e+001 0.000000000000e+000
          4.000000000000e+000 1.250000000000e+001 0.000000000000e+000
          4.000000000000e+000 1.500000000000e+001 0.000000000000e+000
          4.000000000000e+000 1.750000000000e+001 0.000000000000e+000
          4.000000000000e+000 2.000000000000e+001 0.000000000000e+000
          6.000000000000e+000 0.000000000000e+000 0.000000000000e+000
          6.000000000000e+000 2.500000000000e+000 0.000000000000e+000
          6.000000000000e+000 5.000000000000e+000 0.000000000000e+000
          6.000000000000e+000 7.500000000000e+000 0.000000000000e+000
          6.000000000000e+000 1.000000000000e+001 0.000000000000e+000
          6.000000000000e+000 1.250000000000e+001 0.000000000000e+000
          6.000000000000e+000 1.500000000000e+001 0.000000000000e+000
          6.000000000000e+000 1.750000000000e+001 0.000000000000e+000
          6.000000000000e+000 2.000000000000e+001 0.000000000000e+000
          8.000000000000e+000 0.000000000000e+000 0.000000000000e+000
          8.000000000000e+000 2.500000000000e+000 0.000000000000e+000
          8.000000000000e+000 5.000000000000e+000 0.000000000000e+000
          8.000000000000e+000 7.500000000000e+000 0.000000000000e+000
          8.000000000000e+000 1.000000000000e+001 0.000000000000e+000
          8.000000000000e+000 1.250000000000e+001 0.000000000000e+000
          8.000000000000e+000 1.500000000000e+001 0.000000000000e+000
          8.000000000000e+000 1.750000000000e+001 0.000000000000e+000
          8.000000000000e+000 2.000000000000e+001 0.000000000000e+000
          1.000000000000e+001 0.000000000000e+000 0.000000000000e+000
          1.000000000000e+001 2.500000000000e+000 0.000000000000e+000
          1.000000000000e+001 5.000000000000e+000 0.000000000000e+000
          1.000000000000e+001 7.500000000000e+000 0.000000000000e+000
          1.000000000000e+001 1.000000000000e+001 0.000000000000e+000
          1.000000000000e+001 1.250000000000e+001 0.000000000000e+000
          1.000000000000e+001 1.500000000000e+001 0.000000000000e+000
          1.000000000000e+001 1.750000000000e+001 0.000000000000e+000
          1.000000000000e+001 2.000000000000e+001 0.000000000000e+000
          1.200000000000e+001 0.000000000000e+000 0.000000000000e+000
          1.200000000000e+001 2.500000000000e+000 0.000000000000e+000
          1.200000000000e+001 5.000000000000e+000 0.000000000000e+000
          1.200000000000e+001 7.500000000000e+000 0.000000000000e+000
          1.200000000000e+001 1.000000000000e+001 0.000000000000e+000
          1.200000000000e+001 1.250000000000e+001 0.000000000000e+000
          1.200000000000e+001 1.500000000000e+001 0.000000000000e+000
          1.200000000000e+001 1.750000000000e+001 0.000000000000e+000
          1.200000000000e+001 2.000000000000e+001 0.000000000000e+000
          1.400000000000e+001 0.000000000000e+000 0.000000000000e+000
          1.400000000000e+001 2.500000000000e+000 0.000000000000e+000
          1.400000000000e+001 5.000000000000e+000 0.000000000000e+000
          1.400000000000e+001 7.500000000000e+000 0.000000000000e+000
          1.400000000000e+001 1.000000000000e+001 0.000000000000e+000
          1.400000000000e+001 1.250000000000e+001 0.000000000000e+000
          1.400000000000e+001 1.500000000000e+001 0.000000000000e+000
          1.400000000000e+001 1.750000000000e+001 0.000000000000e+000
          1.400000000000e+001 2.000000000000e+001 0.000000000000e+000
          1.600000000000e+001 0.000000000000e+000 0.000000000000e+000
          1.600000000000e+001 2.500000000000e+000 0.000000000000e+000
          1.600000000000e+001 5.000000000000e+000 0.000000000000e+000
          1.600000000000e+001 7.500000000000e+000 0.000000000000e+000
          1.600000000000e+001 1.000000000000e+001 0.000000000000e+000
          1.600000000000e+001 1.250000000000e+001 0.000000000000e+000
          1.600000000000e+001 1.500000000000e+001 0.000000000000e+000
          1.600000000000e+001 1.750000000000e+001 0.000000000000e+000
          1.600000000000e+001 2.000000000000e+001 0.000000000000e+000
          1.800000000000e+001 0.000000000000e+000 0.000000000000e+000
          1.800000000000e+001 2.500000000000e+000 0.000000000000e+000
          1.800000000000e+001 5.000000000000e+000 0.000000000000e+000
          1.800000000000e+001 7.500000000000e+000 0.000000000000e+000
          1.800000000000e+001 1.000000000000e+001 0.000000000000e+000
          1.800000000000e+001 1.250000000000e+001 0.000000000000e+000
          1.800000000000e+001 1.500000000000e+001 0.000000000000e+000
          1.800000000000e+001 1.750000000000e+001 0.000000000000e+000
          1.800000000000e+001 2.000000000000e+001 0.000000000000e+000
          2.000000000000e+001 0.000000000000e+000 0.000000000000e+000
          2.000000000000e+001 2.500000000000e+000 0.000000000000e+000
          2.000000000000e+001 5.000000000000e+000 0.000000000000e+000
          2.000000000000e+001 7.500000000000e+000 0.000000000000e+000
          2.000000000000e+001 1.000000000000e+001 0.000000000000e+000
          2.000000000000e+001 1.250000000000e+001 0.000000000000e+000
          2.000000000000e+001 1.500000000000e+001 0.000000000000e+000
          2.000000000000e+001 1.750000000000e+001 0.000000000000e+000
          2.000000000000e+001 2.000000000000e+001 0.000000000000e+000
          2.200000000000e+001 0.000000000000e+000 0.000000000000e+000
          2.200000000000e+001 2.500000000000e+000 0.000000000000e+000
          2.200000000000e+001 5.000000000000e+000 0.000000000000e+000
          2.200000000000e+001 7.500000000000e+000 0.000000000000e+000
          2.200000000000e+001 1.000000000000e+001 0.000000000000e+000
          2.200000000000e+001 1.250000000000e+001 0.000000000000e+000
          2.200000000000e+001 1.500000000000e+001 0.000000000000e+000
          2.200000000000e+001 1.750000000000e+001 0.000000000000e+000
          2.200000000000e+001 2.000000000000e+001 0.000000000000e+000
          2.400000000000e+001 0.000000000000e+000 0.000000000000e+000
          2.400000000000e+001 2.500000000000e+000 0.000000000000e+000
          2.400000000000e+001 5.000000000000e+000 0.000000000000e+000
          2.400000000000e+001 7.500000000000e+000 0.000000000000e+000
          2.400000000000e+001 1.000000000000e+001 0.000000000000e+000
          2.400000000000e+001 1.250000000000e+001 0.000000000000e+000
          2.400000000000e+001 1.500000000000e+001 0.000000000000e+000
          2.400000000000e+001 1.750000000000e+001 0.000000000000e+000
          2.400000000000e+001 2.000000000000e+001 0.000000000000e+000
          2.600000000000e+001 0.000000000000e+000 0.000000000000e+000
          2.600000000000e+001 2.500000000000e+000 0.000000000000e+000
          2.600000000000e+001 5.000000000000e+000 0.000000000000e+000
          2.600000000000e+001 7.500000000000e+000 0.000000000000e+000
          2.600000000000e+001 1.000000000000e+001 0.000000000000e+000
          2.600000000000e+001 1.250000000000e+001 0.000000000000e+000
          2.600000000000e+001 1.500000000000e+001 0.000000000000e+000
          2.600000000000e+001 1.750000000000e+001 0.000000000000e+000
          2.600000000000e+001 2.000000000000e+001 0.000000000000e+000
          2.800000000000e+001 0.000000000000e+000 0.000000000000e+000
          2.800000000000e+001 2.500000000000e+000 0.000000000000e+000
          2.800000000000e+001 5.000000000000e+000 0.000000000000e+000
          2.800000000000e+001 7.500000000000e+000 0.000000000000e+000
          2.800000000000e+001 1.000000000000e+001 0.000000000000e+000
          2.800000000000e+001 1.250000000000e+001 0.000000000000e+000
          2.800000000000e+001 1.500000000000e+001 0.000000000000e+000
          2.800000000000e+001 1.750000000000e+001 0.000000000000e+000
          2.800000000000e+001 2.000000000000e+001 0.000000000000e+000
          3.000000000000e+001 0.000000000000e+000 0.000000000000e+000
          3.000000000000e+001 2.500000000000e+000 0.000000000000e+000
          3.000000000000e+001 5.000000000000e+000 0.000000000000e+000
          3.000000000000e+001 7.500000000000e+000 0.000000000000e+000
[...]
      <PointData Scalars="CAPILLARY_PRESSURE">
        <DataArray type="Float64" Name="CAPILLARY_PRESSURE" format="ascii">
          2.974355950814e+005 2.948232815935e+005 2.948232815935e+005 2.974355950814e+005 2.948232815935e+005 2.974355950814e+005 2.948232815935e+005 2.974355950814e+005 2.948232815935e+005 2.974355950814e+005 2.948232815935e+005 2.974355950814e+005 2.948232815935e+005 2.974355950814e+005 2.948232815935e+005 2.974355950814e+005 2.948232815935e+005 2.974355950814e+005 2.922174624171e+005 2.922174624171e+005 2.922174624171e+005 2.922174624171e+005 2.922174624171e+005 2.922174624171e+005 2.922174624171e+005 2.922174624171e+005 2.922174624171e+005 2.896174724321e+005 2.896174724321e+005 2.896174724321e+005 2.896174724321e+005 2.896174724321e+005 2.896174724321e+005 2.896174724321e+005 2.896174724321e+005 2.896174724321e+005 2.870227073504e+005 2.870227073504e+005 2.870227073504e+005 2.870227073504e+005 2.870227073504e+005 2.870227073504e+005 2.870227073504e+005 2.870227073504e+005 2.870227073504e+005 2.844325030954e+005 2.844325030954e+005 2.844325030954e+005 2.844325030954e+005 2.844325030954e+005 2.844325030954e+005 2.844325030954e+005 2.844325030954e+005 2.844325030954e+005 2.818461675796e+005 2.818461675796e+005 2.818461675796e+005 2.818461675796e+005 2.818461675796e+005 2.818461675796e+005 2.818461675796e+005 2.818461675796e+005 2.818461675796e+005 2.792629778897e+005 2.792629778897e+005 2.792629778897e+005 2.792629778897e+005 2.792629778897e+005 2.792629778897e+005 2.792629778897e+005 2.792629778897e+005 2.792629778897e+005 2.766821764007e+005 2.766821764007e+005 2.766821764007e+005 2.766821764007e+005 2.766821764007e+005 2.766821764007e+005 2.766821764007e+005 2.766821764007e+005 2.766821764007e+005 2.741029685179e+005 2.741029685179e+005 2.741029685179e+005 2.741029685179e+005 2.741029685179e+005 2.741029685179e+005 2.741029685179e+005 2.741029685179e+005 2.741029685179e+005 2.715245205266e+005 2.715245205266e+005 2.715245205266e+005 2.715245205266e+005 2.715245205266e+005 2.715245205266e+005 2.715245205266e+005 2.715245205266e+005 2.715245205266e+005 2.689459569350e+005 2.689459569350e+005 2.689459569350e+005 2.689459569350e+005 2.689459569350e+005 2.689459569350e+005 2.689459569350e+005 2.689459569350e+005 2.689459569350e+005 2.663663575444e+005 2.663663575444e+005 2.663663575444e+005 2.663663575444e+005 2.663663575444e+005 2.663663575444e+005 2.663663575444e+005 2.663663575444e+005 2.663663575444e+005 2.637847542278e+005 2.637847542278e+005 2.637847542278e+005 2.637847542278e+005 2.637847542278e+005 2.637847542278e+005 2.637847542278e+005 2.637847542278e+005 2.637847542278e+005 2.612001274094e+005 2.612001274094e+005 2.612001274094e+005 2.612001274094e+005 2.612001274094e+005 2.612001274094e+005 2.612001274094e+005 2.612001274094e+005 2.612001274094e+005 2.586114022067e+005 2.586114022067e+005 2.586114022067e+005 2.586114022067e+005 2.586114022067e+005 2.586114022067e+005 2.586114022067e+005 2.586114022067e+005 2.586114022067e+005 2.560174441763e+005 2.560174441763e+005 2.560174441763e+005 2.560174441763e+005 2.560174441763e+005 2.560174441763e+005 2.560174441763e+005 2.560174441763e+005 2.560174441763e+005 2.534170546146e+005 2.534170546146e+005 2.534170546146e+005 2.534170546146e+005 2.534170546146e+005 2.534170546146e+005 2.534170546146e+005 2.534170546146e+005 2.534170546146e+005 2.508089653576e+005 2.508089653576e+005 2.508089653576e+005 2.508089653576e+005 2.508089653576e+005 2.508089653576e+005 2.508089653576e+005 2.508089653576e+005 2.508089653576e+005 2.481918330137e+005 2.481918330137e+005 2.481918330137e+005 2.481918330137e+005 2.481918330137e+005 2.481918330137e+005 2.481918330137e+005 2.481918330137e+005 2.481918330137e+005 2.455642325542e+005 2.455642325542e+005 2.455642325542e+005 2.455642325542e+005 2.455642325542e+005 2.455642325542e+005 2.455642325542e+005 2.455642325542e+005 2.455642325542e+005 2.429246501735e+005 2.429246501735e+005 2.429246501735e+005 2.429246501735e+005 2.429246501735e+005 2.429246501735e+005 2.429246501735e+005 2.429246501735e+005 2.429246501735e+005 2.402714753166e+005 2.402714753166e+005 2.402714753166e+005 2.402714753166e+005 2.402714753166e+005 2.402714753166e+005 2.402714753166e+005 2.402714753166e+005 2.402714753166e+005 2.376029917584e+005 2.376029917584e+005 2.376029917584e+005 2.376029917584e+005 2.376029917584e+005 2.376029917584e+005 2.376029917584e+005 2.376029917584e+005 2.376029917584e+005 2.349173675958e+005 2.349173675958e+005 2.349173675958e+005 2.349173675958e+005 2.349173675958e+005 2.349173675958e+005 2.349173675958e+005 2.349173675958e+005 2.349173675958e+005 2.322126439951e+005 2.322126439951e+005 2.322126439951e+005 2.322126439951e+005 2.322126439951e+005 2.322126439951e+005 2.322126439951e+005 2.322126439951e+005 2.322126439951e+005 2.294867225023e+005 2.294867225023e+005 2.294867225023e+005 2.294867225023e+005 2.294867225023e+005 2.294867225023e+005 2.294867225023e+005 2.294867225023e+005 2.294867225023e+005 2.267373506953e+005 2.267373506953e+005 2.267373506953e+005 2.267373506953e+005 2.267373506953e+005 2.267373506953e+005 2.267373506953e+005 2.267373506953e+005 2.267373506953e+005 2.239621059092e+005 2.239621059092e+005 2.239621059092e+005 2.239621059092e+005 2.239621059092e+005 2.239621059092e+005 2.239621059092e+005 2.239621059092e+005 2.239621059092e+005 2.211583767170e+005 2.211583767170e+005 2.211583767170e+005 2.211583767170e+005 2.211583767170e+005 2.211583767170e+005 2.211583767170e+005 2.211583767170e+005 2.211583767170e+005 2.183233417811e+005 2.183233417811e+005 2.183233417811e+005 2.183233417811e+005 2.183233417811e+005 2.183233417811e+005 2.183233417811e+005 2.183233417811e+005 2.183233417811e+005 2.154539456140e+005 2.154539456140e+005 2.154539456140e+005 2.154539456140e+005 2.154539456140e+005 2.154539456140e+005 2.154539456140e+005 2.154539456140e+005 2.154539456140e+005 2.125468706859e+005 2.125468706859e+005 2.125468706859e+005 2.125468706859e+005 2.125468706859e+005 2.125468706859e+005 2.125468706859e+005 2.125468706859e+005 2.125468706859e+005 2.095985051955e+005 2.095985051955e+005 2.095985051955e+005 2.095985051955e+005 2.095985051955e+005 2.095985051955e+005 2.095985051955e+005 2.095985051955e+005 2.095985051955e+005 2.066049056654e+005 2.066049056654e+005 2.066049056654e+005 2.066049056654e+005 2.066049056654e+005 2.066049056654e+005 2.066049056654e+005 2.066049056654e+005 2.066049056654e+005 2.035617533284e+005 2.035617533284e+005 2.035617533284e+005 2.035617533284e+005 2.035617533284e+005 2.035617533284e+005 2.035617533284e+005 2.035617533284e+005 2.035617533284e+005 2.004643030247e+005 2.004643030247e+005 2.004643030247e+005 2.004643030247e+005 2.004643030247e+005 2.004643030247e+005 2.004643030247e+005 2.004643030247e+005 2.004643030247e+005 1.973073230081e+005 1.973073230081e+005 1.973073230081e+005 1.973073230081e+005 1.973073230081e+005 1.973073230081e+005 1.973073230081e+005 1.973073230081e+005 1.973073230081e+005 1.940850236484e+005 1.940850236484e+005 1.940850236484e+005 1.940850236484e+005 1.940850236484e+005 1.940850236484e+005 1.940850236484e+005 1.940850236484e+005 1.940850236484e+005 1.907909724749e+005 1.907909724749e+005 1.907909724749e+005 1.907909724749e+005 1.907909724749e+005 1.907909724749e+005 1.907909724749e+005 1.907909724749e+005 1.907909724749e+005 1.874179922886e+005 1.874179922886e+005 1.874179922886e+005 1.874179922886e+005 1.874179922886e+005 1.874179922886e+005 1.874179922886e+005 1.874179922886e+005 1.874179922886e+005 1.839580381123e+005 1.839580381123e+005 1.839580381123e+005 1.839580381123e+005 1.839580381123e+005 1.839580381123e+005 1.839580381123e+005 1.839580381123e+005 1.839580381123e+005 1.804020474523e+005 1.804020474523e+005 1.804020474523e+005 1.804020474523e+005 1.804020474523e+005 1.804020474523e+005 1.804020474523e+005 1.804020474523e+005 1.804020474523e+005 1.767397565673e+005 1.767397565673e+005 1.767397565673e+005 1.767397565673e+005 1.767397565673e+005 1.767397565673e+005 1.767397565673e+005 1.767397565673e+005 1.767397565673e+005 1.729594729744e+005 1.729594729744e+005 1.729594729744e+005 1.729594729744e+005 1.729594729744e+005 1.729594729744e+005 1.729594729744e+005 1.729594729744e+005 1.729594729744e+005 1.690477909426e+005 1.690477909426e+005 1.690477909426e+005 1.690477909426e+005 1.690477909426e+005 1.690477909426e+005 1.690477909426e+005 1.690477909426e+005 1.690477909426e+005 1.649892317513e+005 1.649892317513e+005 1.649892317513e+005 1.649892317513e+005 1.649892317513e+005 1.649892317513e+005 1.649892317513e+005 1.649892317513e+005 1.649892317513e+005 1.607657832110e+005 1.607657832110e+005 1.607657832110e+005 1.607657832110e+005 1.607657832110e+005 1.607657832110e+005 1.607657832110e+005 1.607657832110e+005 1.607657832110e+005 1.563563021459e+005 1.563563021459e+005 1.563563021459e+005 1.563563021459e+005 1.563563021459e+005 1.563563021459e+005 1.563563021459e+005 1.563563021459e+005 1.563563021459e+005 1.517357271123e+005 1.517357271123e+005 1.517357271123e+005 1.517357271123e+005 1.517357271123e+005 1.517357271123e+005 1.517357271123e+005 1.517357271123e+005 1.517357271123e+005 1.468740231490e+005 1.468740231489e+005 1.468740231490e+005 1.468740231489e+005 1.468740231490e+005 1.468740231489e+005 1.468740231490e+005 1.468740231489e+005 1.468740231490e+005 1.417347404930e+005 1.417347404930e+005 1.417347404930e+005 1.417347404930e+005 1.417347404930e+005 1.417347404930e+005 1.417347404930e+005 1.417347404930e+005 1.417347404930e+005 1.362730030433e+005 1.362730030433e+005 1.362730030433e+005 1.362730030433e+005 1.362730030433e+005 1.362730030433e+005 1.362730030433e+005 1.362730030433e+005 1.362730030433e+005 1.304326294550e+005 1.304326294551e+005 1.304326294550e+005 1.304326294550e+005 1.304326294550e+005 1.304326294550e+005 1.304326294551e+005 1.304326294550e+005 1.304326294550e+005 1.241418882654e+005 1.241418882654e+005 1.241418882654e+005 1.241418882654e+005 1.241418882656e+005 1.241418882655e+005 1.241418882654e+005 1.241418882656e+005 1.241418882655e+005 1.173070207644e+005 1.173070207645e+005 1.173070207645e+005 1.173070207646e+005 1.173070207642e+005 1.173070207643e+005 1.173070207648e+005 1.173070207644e+005 1.173070207647e+005 1.098019573272e+005 1.098019573273e+005 1.098019573271e+005 1.098019573265e+005 1.098019573273e+005 1.098019573277e+005 1.098019573268e+005 1.098019573276e+005 1.098019573271e+005 1.014512792100e+005 1.014512792080e+005 1.014512792083e+005 1.014512792094e+005 1.014512792095e+005 1.014512792067e+005 1.014512792094e+005 1.014512792092e+005 1.014512792100e+005 9.200051721086e+004 9.200051721869e+004 9.200051721670e+004 9.200051721504e+004 9.200051721059e+004 9.200051722275e+004 9.200051721569e+004 9.200051721584e+004 9.200051721659e+004 8.106098662610e+004 8.106098660692e+004 8.106098661254e+004 8.106098661300e+004 8.106098663338e+004 8.106098659614e+004 8.106098661703e+004 8.106098661594e+004 8.106098661000e+004 6.799454358994e+004 6.799454361072e+004 6.799454360673e+004 6.799454360555e+004 6.799454353898e+004 6.799454363899e+004 6.799454359753e+004 6.799454361034e+004 6.799454362407e+004 5.168938498638e+004 5.168938504883e+004 5.168938499723e+004 5.168938501679e+004 5.168938520802e+004 5.168938497269e+004 5.168938502555e+004 5.168938498492e+004 5.168938498658e+004 3.004015089639e+004 3.004015039965e+004 3.004015070133e+004 3.004015057129e+004 3.004014997810e+004 3.004015055154e+004 3.004015068787e+004 3.004015078668e+004 3.004015069869e+004 3.801654410773e+002 3.801685989445e+002 3.801667115060e+002 3.801672828543e+002 3.801694882101e+002 3.801680705557e+002 3.801663577076e+002 3.801669451436e+002 3.801668595533e+002 -3.262130465966e+004 -3.262130603015e+004 -3.262130623525e+004 -3.262130722145e+004 -3.262130396748e+004 -3.262130418467e+004 -3.262130753329e+004 -3.262130701219e+004 -3.262130552970e+004 -6.514017607501e+004 -6.514017718741e+004 -6.514017660766e+004 -6.514017554050e+004 -6.514017418793e+004 -6.514017531186e+004 -6.514017828656e+004 -6.514017796403e+004 -6.514017550212e+004 -9.717913490761e+004 -9.717913591227e+004 -9.717913579138e+004 -9.717913650510e+004 -9.717913372193e+004 -9.717913525905e+004 -9.717913745540e+004 -9.717913651994e+004 -9.717913486891e+004 -1.287516645432e+005 -1.287516655597e+005 -1.287516669125e+005 -1.287516643591e+005 -1.287516646833e+005 -1.287516658729e+005 -1.287516662631e+005 -1.287516672990e+005 -1.287516638979e+005 -1.598720209216e+005 -1.598720218342e+005 -1.598720214406e+005 -1.598720195212e+005 -1.598720216058e+005 -1.598720212147e+005 -1.598720204031e+005 -1.598720206973e+005 -1.598720200967e+005 -1.905543396160e+005 -1.905543388554e+005 -1.905543384553e+005 -1.905543381318e+005 -1.905543352892e+005 -1.905543354537e+005 -1.905543380073e+005 -1.905543367076e+005 -1.905543364841e+005 -2.208125700051e+005 -2.208125675304e+005 -2.208125673210e+005 -2.208125655457e+005 -2.208125638704e+005 -2.208125642801e+005 -2.208125667219e+005 -2.208125655284e+005 -2.208125664935e+005 -2.506605242868e+005 -2.506605235340e+005 -2.506605235367e+005 -2.506605227301e+005 -2.506605219788e+005 -2.506605219074e+005 -2.506605231463e+005 -2.506605235395e+005 -2.506605232966e+005 -2.801119745521e+005 -2.801119767427e+005 -2.801119772538e+005 -2.801119779813e+005 -2.801119765817e+005 -2.801119773587e+005 -2.801119786728e+005 -2.801119773906e+005 -2.801119766042e+005 -3.091807270280e+005 -3.091807249304e+005 -3.091807275117e+005 -3.091807276732e+005 -3.091807263933e+005 -3.091807287620e+005 -3.091807273617e+005 -3.091807276000e+005 -3.091807270630e+005 -3.378806278207e+005 -3.378806264594e+005 -3.378806262891e+005 -3.378806260458e+005 -3.378806256914e+005 -3.378806275421e+005 -3.378806272083e+005 -3.378806277293e+005 -3.378806258249e+005 -3.662255807580e+005 -3.662255840880e+005 -3.662255845450e+005 -3.662255843401e+005 -3.662255837225e+005 -3.662255853349e+005 -3.662255850323e+005 -3.662255851943e+005 -3.662255857878e+005 -3.942295412064e+005 -3.942295446273e+005 -3.942295437048e+005 -3.942295437412e+005 -3.942295467288e+005 -3.942295447930e+005 -3.942295461568e+005 -3.942295461888e+005 -3.942295464821e+005 -4.219064624738e+005 -4.219064640180e+005 -4.219064644552e+005 -4.219064634126e+005 -4.219064647716e+005 -4.219064652138e+005 -4.219064663603e+005 -4.219064649109e+005 -4.219064651471e+005 -4.492702950112e+005 -4.492702938801e+005 -4.492702940749e+005 -4.492702953817e+005 -4.492702940144e+005 -4.492702948409e+005 -4.492702949481e+005 -4.492702945053e+005 -4.492702940747e+005 -4.763349689591e+005 -4.763349701185e+005 -4.763349685290e+005 -4.763349691387e+005 -4.763349689602e+005 -4.763349697242e+005 -4.763349698074e+005 -4.763349687262e+005 -4.763349699575e+005 -5.031144013606e+005 -5.031143984346e+005 -5.031143977676e+005 -5.031143992430e+005 -5.031143983646e+005 -5.031143976126e+005 -5.031143982289e+005 -5.031143976931e+005 -5.031143990765e+005 -5.296224677003e+005 -5.296224646768e+005 -5.296224632003e+005 -5.296224645529e+005 -5.296224646918e+005 -5.296224650072e+005 -5.296224648310e+005 -5.296224653104e+005 -5.296224632330e+005 -5.558730223966e+005 -5.558730213451e+005 -5.558730200262e+005 -5.558730208878e+005 -5.558730214688e+005 -5.558730212963e+005 -5.558730214685e+005 -5.558730202234e+005 -5.558730202129e+005 -5.818798933600e+005 -5.818798914321e+005 -5.818798902457e+005 -5.818798905920e+005 -5.818798901188e+005 -5.818798886375e+005 -5.818798904017e+005 -5.818798898376e+005 -5.818798893079e+005 -6.076568721070e+005 -6.076568692435e+005 -6.076568685566e+005 -6.076568667165e+005 -6.076568668122e+005 -6.076568665470e+005 -6.076568668116e+005 -6.076568654891e+005 -6.076568647677e+005 -6.332177237491e+005 -6.332177228149e+005 -6.332177217820e+005 -6.332177204130e+005 -6.332177198137e+005 -6.332177189299e+005 -6.332177190375e+005 -6.332177176453e+005 -6.332177181682e+005 -6.585761957999e+005 -6.585761956491e+005 -6.585761934795e+005 -6.585761947755e+005 -6.585761924743e+005 -6.585761920429e+005 -6.585761917634e+005 -6.585761906216e+005 -6.585761895272e+005 -6.837460097601e+005 -6.837460087690e+005 -6.837460097037e+005 -6.837460074269e+005 -6.837460071024e+005 -6.837460059500e+005 -6.837460057227e+005 -6.837460055284e+005 -6.837460044549e+005 -7.087408655022e+005 -7.087408670803e+005 -7.087408664434e+005 -7.087408662640e+005 -7.087408648324e+005 -7.087408644026e+005 -7.087408635466e+005 -7.087408621519e+005 -7.087408614771e+005 -7.335744507862e+005 -7.335744526659e+005 -7.335744533966e+005 -7.335744519318e+005 -7.335744503215e+005 -7.335744504243e+005 -7.335744488529e+005 -7.335744475034e+005 -7.335744473465e+005 -7.582604312136e+005 -7.582604335503e+005 -7.582604334037e+005 -7.582604333698e+005 -7.582604323982e+005 -7.582604306239e+005 -7.582604294339e+005 -7.582604291387e+005 -7.582604284627e+005 -7.828124637369e+005 -7.828124617951e+005 -7.828124626573e+005 -7.828124625919e+005 -7.828124622772e+005 -7.828124597173e+005 -7.828124586943e+005 -7.828124594933e+005 -7.828124591630e+005 -8.072441816251e+005 -8.072441810588e+005 -8.072441808220e+005 -8.072441807257e+005 -8.072441797569e+005 -8.072441775204e+005 -8.072441781655e+005 -8.072441775342e+005 -8.072441778652e+005 -8.315692166375e+005 -8.315692158599e+005 -8.315692158117e+005 -8.315692143823e+005 -8.315692142306e+005 -8.315692131864e+005 -8.315692129083e+005 -8.315692123181e+005 -8.315692130266e+005 -8.558011839233e+005 -8.558011830225e+005 -8.558011833931e+005 -8.558011830258e+005 -8.558011818909e+005 -8.558011817719e+005 -8.558011811518e+005 -8.558011810820e+005 -8.558011798886e+005 -8.799536899273e+005 -8.799536905981e+005 -8.799536913735e+005 -8.799536909129e+005 -8.799536901768e+005 -8.799536904772e+005 -8.799536898279e+005 -8.799536898620e+005 -8.799536895888e+005 -9.040403360018e+005 -9.040403367725e+005 -9.040403373159e+005 -9.040403367313e+005 -9.040403366857e+005 -9.040403369079e+005 -9.040403360922e+005 -9.040403366235e+005 -9.040403366935e+005 -9.280747113062e+005 -9.280747114200e+005 -9.280747117636e+005 -9.280747118892e+005 -9.280747107462e+005 -9.280747105858e+005 -9.280747108902e+005 -9.280747111559e+005 -9.280747109984e+005 -9.520703959564e+005 -9.520703967787e+005 -9.520703974106e+005 -9.520703973379e+005 -9.520703970333e+005 -9.520703963549e+005 -9.520703963549e+005 -9.520703965250e+005 -9.520703966372e+005 -9.760409695008e+005 -9.760409699327e+005 -9.760409701846e+005 -9.760409700345e+005 -9.760409701277e+005 -9.760409696686e+005 -9.760409696682e+005 -9.760409698321e+005 -9.760409696742e+005 -1.000000000000e+006 -1.000000000000e+006 -1.000000000000e+006 -1.000000000000e+006 -1.000000000000e+006 -1.000000000000e+006 -1.000000000000e+006 -1.000000000000e+006 -1.000000000000e+006 
        </DataArray>
        <DataArray type="Float64" Name="NONWET_PRESSURE" format="ascii">