<?xml version="1.0"?>
<VTKFile type="UnstructuredGrid" version="0.1" byte_order="LittleEndian">
  <UnstructuredGrid>
    <Piece NumberOfPoints="909" NumberOfCells="800">
      <Points>
        <DataArray type="Float64" NumberOfComponents="3" format="ascii">
          0.000000000000e+000 0.000000000000e+000 0.000000000000e+000
          2.000000000000e+000 0.000000000000e+000 0.000000000000e+000
          2.000000000000e+000 2.500000000000e+000 0.000000000000e+000
          0.000000000000e+000 2.500000000000e+000 0.000000000000e+000
          2.000000000000e+000 5.000000000000e+000 0.000000000000e+000
          0.000000000000e+000 5.000000000000e+000 0.000000000000e+000
          2.000000000000e+000 7.500000000000e+000 0.000000000000e+000
          0.000000000000e+000 7.500000000000e+000 0.000000000000e+000
          2.000000000000e+000 1.000000000000e+001 0.000000000000e+000
          0.000000000000e+000 1.000000000000e+001 0.000000000000e+000
          2.000000000000e+000 1.250000000000e+001 0.000000000000e+000
          0.000000000000e+000 1.250000000000e+001 0.000000000000e+000
          2.000000000000e+000 1.500000000000e+001 0.000000000000e+000
          0.000000000000e+000 1.500000000000e+001 0.000000000000e+000
          2.000000000000e+000 1.750000000000e+001 0.000000000000e+000
          0.000000000000e+000 1.750000000000e+001 0.000000000000e+000
          2.000000000000e+000 2.000000000000e+001 0.000000000000e+000
          0.000000000000e+000 2.000000000000e+001 0.000000000000e+000
          4.000000000000e+000 0.000000000000e+000 0.000000000000e+000
          4.000000000000e+000 2.500000000000e+000 0.000000000000e+000
          4.000000000000e+000 5.000000000000e+000 0.000000000000e+000
          4.000000000000e+000 7.500000000000e+000 0.000000000000e+000
          4.000000000000e+000 1.000000000000e+001 0.000000000000e+000
          4.000000000000e+000 1.250000000000e+001 0.000000000000e+000
          4.000000000000e+000 1.500000000000e+001 0.000000000000e+000
          4.000000000000e+000 1.750000000000e+001 0.000000000000e+000
          4.000000000000e+000 2.000000000000e+001 0.000000000000e+000
          6.000000000000e+000 0.000000000000e+000 0.000000000000e+000
          6.000000000000e+000 2.500000000000e+000 0.000000000000e+000
          6.000000000000e+000 5.000000000000e+000 0.000000000000e+000
          6.000000000000e+000 7.500000000000e+000 0.000000000000e+000
          6.000000000000e+000 1.000000000000e+001 0.000000000000e+000
          6.000000000000e+000 1.250000000000e+001 0.000000000000e+000
          6.000000000000e+000 1.500000000000e+001 0.000000000000e+000
          6.000000000000e+000 1.750000000000e+001 0.000000000000e+000
          6.000000000000e+000 2.000000000000e+001 0.000000000000e+000
          8.000000000000e+000 0.000000000000e+000 0.000000000000e+000
          8.000000000000e+000 2.500000000000e+000 0.000000000000e+000
          8.000000000000e+000 5.000000000000e+000 0.000000000000e+000
          8.000000000000e+000 7.500000000000e+000 0.000000000000e+000
          8.000000000000e+000 1.000000000000e+001 0.000000000000e+000
          8.000000000000e+000 1.250000000000e+001 0.000000000000e+000
          8.000000000000e+000 1.500000000000e+001 0.000000000000e+000
          8.000000000000e+000 1.750000000000e+001 0.000000000000e+000
          8.000000000000e+000 2.000000000000e+001 0.000000000000e+000
          1.000000000000e+001 0.000000000000e+000 0.000000000000e+000
          1.000000000000e+001 2.500000000000e+000 0.000000000000e+000
          1.000000000000e+001 5.000000000000e+000 0.000000000000e+000
          1.000000000000e+001 7.500000000000e+000 0.000000000000e+000
          1.000000000000e+001 1.000000000000e+001 0.000000000000e+000
          1.000000000000e+001 1.250000000000e+001 0.000000000000e+000
          1.000000000000e+001 1.500000000000e+001 0.000000000000e+000
          1.000000000000e+001 1.750000000000e+001 0.000000000000e+000
          1.000000000000e+001 2.000000000000e+001 0.000000000000e+000
          1.200000000000e+001 0.000000000000e+000 0.000000000000e+000
          1.200000000000e+001 2.500000000000e+000 0.000000000000e+000
          1.200000000000e+001 5.000000000000e+000 0.000000000000e+000
          1.200000000000e+001 7.500000000000e+000 0.000000000000e+000
          1.200000000000e+001 1.000000000000e+001 0.000000000000e+000
          1.200000000000e+001 1.250000000000e+001 0.000000000000e+000
          1.200000000000e+001 1.500000000000e+001 0.000000000000e+000
          1.200000000000e+001 1.750000000000e+001 0.000000000000e+000
          1.200000000000e+001 2.000000000000e+001 0.000000000000e+000
          1.400000000000e+001 0.000000000000e+000 0.000000000000e+000
          1.400000000000e+001 2.500000000000e+000 0.000000000000e+000
          1.400000000000e+001 5.000000000000e+000 0.000000000000e+000
          1.400000000000e+001 7.500000000000e+000 0.000000000000e+000
          1.400000000000e+001 1.000000000000e+001 0.000000000000e+000
          1.400000000000e+001 1.250000000000e+001 0.000000000000e+000
          1.400000000000e+001 1.500000000000e+001 0.000000000000e+000
          1.400000000000e+001 1.750000000000e+001 0.000000000000e+000
          1.400000000000e+001 2.000000000000e+001 0.000000000000e+000
          1.600000000000e+001 0.000000000000e+000 0.000000000000e+000
          1.600000000000e+001 2.500000000000e+000 0.000000000000e+000
          1.600000000000e+001 5.000000000000e+000 0.000000000000e+000
          1.600000000000e+001 7.500000000000e+000 0.000000000000e+000
          1.600000000000e+001 1.000000000000e+001 0.000000000000e+000
          1.600000000000e+001 1.250000000000e+001 0.000000000000e+000
          1.600000000000e+001 1.500000000000e+001 0.000000000000e+000
          1.600000000000e+001 1.750000000000e+001 0.000000000000e+000
          1.600000000000e+001 2.000000000000e+001 0.000000000000e+000
          1.800000000000e+001 0.000000000000e+000 0.000000000000e+000
          1.800000000000e+001 2.500000000000e+000 0.000000000000e+000
          1.800000000000e+001 5.000000000000e+000 0.000000000000e+000
          1.800000000000e+001 7.500000000000e+000 0.000000000000e+000
          1.800000000000e+001 1.000000000000e+001 0.000000000000e+000
          1.800000000000e+001 1.250000000000e+001 0.000000000000e+000
          1.800000000000e+001 1.500000000000e+001 0.000000000000e+000
          1.800000000000e+001 1.750000000000e+001 0.000000000000e+000
          1.800000000000e+001 2.000000000000e+001 0.000000000000e+000
          2.000000000000e+001 0.000000000000e+000 0.000000000000e+000
          2.000000000000e+001 2.500000000000e+000 0.000000000000e+000
          2.000000000000e+001 5.000000000000e+000 0.000000000000e+000
          2.000000000000e+001 7.500000000000e+000 0.000000000000e+000
          2.000000000000e+001 1.000000000000e+001 0.000000000000e+000
          2.000000000000e+001 1.250000000000e+001 0.000000000000e+000
          2.000000000000e+001 1.500000000000e+001 0.000000000000e+000
          2.000000000000e+001 1.750000000000e+001 0.000000000000e+000
          2.000000000000e+001 2.000000000000e+001 0.000000000000e+000
          2.200000000000e+001 0.000000000000e+000 0.000000000000e+000
          2.200000000000e+001 2.500000000000e+000 0.000000000000e+000
          2.200000000000e+001 5.000000000000e+000 0.000000000000e+000
          2.200000000000e+001 7.500000000000e+000 0.000000000000e+000
          2.200000000000e+001 1.000000000000e+001 0.000000000000e+000
          2.200000000000e+001 1.250000000000e+001 0.000000000000e+000
          2.200000000000e+001 1.500000000000e+001 0.000000000000e+000
          2.200000000000e+001 1.750000000000e+001 0.000000000000e+000
          2.200000000000e+001 2.000000000000e+001 0.000000000000e+000
          2.400000000000e+001 0.000000000000e+000 0.000000000000e+000
          2.400000000000e+001 2.500000000000e+000 0.000000000000e+000
          2.400000000000e+001 5.000000000000e+000 0.000000000000e+000
          2.400000000000e+001 7.500000000000e+000 0.000000000000e+000
          2.400000000000e+001 1.000000000000e+001 0.000000000000e+000
          2.400000000000e+001 1.250000000000e+001 0.000000000000e+000
          2.400000000000e+001 1.500000000000e+001 0.000000000000e+000
          2.400000000000e+001 1.750000000000e+001 0.000000000000e+000
          2.400000000000e+001 2.000000000000e+001 0.000000000000e+000
          2.600000000000e+001 0.000000000000e+000 0.000000000000e+000
          2.600000000000e+001 2.500000000000e+000 0.000000000000e+000
          2.600000000000e+001 5.000000000000e+000 0.000000000000e+000
          2.600000000000e+001 7.500000000000e+000 0.000000000000e+000
          2.600000000000e+001 1.000000000000e+001 0.000000000000e+000
          2.600000000000e+001 1.250000000000e+001 0.000000000000e+000
          2.600000000000e+001 1.500000000000e+001 0.000000000000e+000
          2.600000000000e+001 1.750000000000e+001 0.000000000000e+000
          2.600000000000e+001 2.000000000000e+001 0.000000000000e+000
          2.800000000000e+001 0.000000000000e+000 0.000000000000e+000
          2.800000000000e+001 2.500000000000e+000 0.000000000000e+000
          2.800000000000e+001 5.000000000000e+000 0.000000000000e+000
          2.800000000000e+001 7.500000000000e+000 0.000000000000e+000
          2.800000000000e+001 1.000000000000e+001 0.000000000000e+000
          2.800000000000e+001 1.250000000000e+001 0.000000000000e+000
          2.800000000000e+001 1.500000000000e+001 0.000000000000e+000
          2.800000000000e+001 1.750000000000e+001 0.000000000000e+000
          2.800000000000e+001 2.000000000000e+001 0.000000000000e+000
          3.000000000000e+001 0.000000000000e+000 0.000000000000e+000
          3.000000000000e+001 2.500000000000e+000 0.000000000000e+000
          3.000000000000e+001 5.000000000000e+000 0.000000000000e+000
          3.000000000000e+001 7.500000000000e+000 0.000000000000e+000
[...]
      <PointData Scalars="CAPILLARY_PRESSURE">
        <DataArray type="Float64" Name="CAPILLARY_PRESSURE" format="ascii">
          2.362940230697e+005 2.323820607352e+005 2.323820607352e+005 2.362940230697e+005 2.323820607352e+005 2.362940230697e+005 2.323820607352e+005 2.362940230697e+005 2.323820607352e+005 2.362940230697e+005 2.323820607352e+005 2.362940230697e+005 2.323820607352e+005 2.362940230697e+005 2.323820607352e+005 2.362940230697e+005 2.323820607352e+005 2.362940230697e+005 2.284448095611e+005 2.284448095611e+005 2.284448095611e+005 2.284448095611e+005 2.284448095611e+005 2.284448095611e+005 2.284448095611e+005 2.284448095611e+005 2.284448095611e+005 2.244778822621e+005 2.244778822621e+005 2.244778822621e+005 2.244778822621e+005 2.244778822621e+005 2.244778822621e+005 2.244778822621e+005 2.244778822621e+005 2.244778822621e+005 2.204768027900e+005 2.204768027900e+005 2.204768027900e+005 2.204768027900e+005 2.204768027900e+005 2.204768027900e+005 2.204768027900e+005 2.204768027900e+005 2.204768027900e+005 2.164370710562e+005 2.164370710562e+005 2.164370710562e+005 2.164370710562e+005 2.164370710562e+005 2.164370710562e+005 2.164370710562e+005 2.164370710562e+005 2.164370710562e+005 2.123538365359e+005 2.123538365359e+005 2.123538365359e+005 2.123538365359e+005 2.123538365359e+005 2.123538365359e+005 2.123538365359e+005 2.123538365359e+005 2.123538365359e+005 2.082217053645e+005 2.082217053645e+005 2.082217053645e+005 2.082217053645e+005 2.082217053645e+005 2.082217053645e+005 2.082217053645e+005 2.082217053645e+005 2.082217053645e+005 2.040346773141e+005 2.040346773141e+005 2.040346773141e+005 2.040346773141e+005 2.040346773141e+005 2.040346773141e+005 2.040346773141e+005 2.040346773141e+005 2.040346773141e+005 1.997860512074e+005 1.997860512074e+005 1.997860512074e+005 1.997860512074e+005 1.997860512074e+005 1.997860512074e+005 1.997860512074e+005 1.997860512074e+005 1.997860512074e+005 1.954683075183e+005 1.954683075183e+005 1.954683075183e+005 1.954683075183e+005 1.954683075183e+005 1.954683075183e+005 1.954683075183e+005 1.954683075183e+005 1.954683075183e+005 1.910729706161e+005 1.910729706161e+005 1.910729706161e+005 1.910729706161e+005 1.910729706161e+005 1.910729706161e+005 1.910729706161e+005 1.910729706161e+005 1.910729706161e+005 1.865904408890e+005 1.865904408890e+005 1.865904408890e+005 1.865904408890e+005 1.865904408890e+005 1.865904408890e+005 1.865904408890e+005 1.865904408890e+005 1.865904408890e+005 1.820097863749e+005 1.820097863749e+005 1.820097863749e+005 1.820097863749e+005 1.820097863749e+005 1.820097863749e+005 1.820097863749e+005 1.820097863749e+005 1.820097863749e+005 1.773184809823e+005 1.773184809823e+005 1.773184809823e+005 1.773184809823e+005 1.773184809823e+005 1.773184809823e+005 1.773184809823e+005 1.773184809823e+005 1.773184809823e+005 1.725020721157e+005 1.725020721157e+005 1.725020721156e+005 1.725020721156e+005 1.725020721156e+005 1.725020721156e+005 1.725020721156e+005 1.725020721156e+005 1.725020721156e+005 1.675437539143e+005 1.675437539143e+005 1.675437539143e+005 1.675437539143e+005 1.675437539143e+005 1.675437539143e+005 1.675437539143e+005 1.675437539143e+005 1.675437539143e+005 1.624238122874e+005 1.624238122874e+005 1.624238122874e+005 1.624238122874e+005 1.624238122874e+005 1.624238122874e+005 1.624238122874e+005 1.624238122874e+005 1.624238122874e+005 1.571188928469e+005 1.571188928469e+005 1.571188928469e+005 1.571188928469e+005 1.571188928469e+005 1.571188928469e+005 1.571188928469e+005 1.571188928469e+005 1.571188928469e+005 1.516010202751e+005 1.516010202751e+005 1.516010202751e+005 1.516010202751e+005 1.516010202751e+005 1.516010202751e+005 1.516010202750e+005 1.516010202750e+005 1.516010202750e+005 1.458362616545e+005 1.458362616545e+005 1.458362616544e+005 1.458362616544e+005 1.458362616544e+005 1.458362616544e+005 1.458362616544e+005 1.458362616544e+005 1.458362616544e+005 1.397828700061e+005 1.397828700061e+005 1.397828700061e+005 1.397828700061e+005 1.397828700060e+005 1.397828700060e+005 1.397828700060e+005 1.397828700060e+005 1.397828700060e+005 1.333886481817e+005 1.333886481816e+005 1.333886481817e+005 1.333886481816e+005 1.333886481816e+005 1.333886481816e+005 1.333886481815e+005 1.333886481815e+005 1.333886481815e+005 1.265871086284e+005 1.265871086285e+005 1.265871086284e+005 1.265871086284e+005 1.265871086284e+005 1.265871086283e+005 1.265871086282e+005 1.265871086283e+005 1.265871086282e+005 1.192917141772e+005 1.192917141768e+005 1.192917141770e+005 1.192917141768e+005 1.192917141768e+005 1.192917141766e+005 1.192917141766e+005 1.192917141764e+005 1.192917141765e+005 1.113868919598e+005 1.113868919606e+005 1.113868919598e+005 1.113868919599e+005 1.113868919595e+005 1.113868919593e+005 1.113868919591e+005 1.113868919593e+005 1.113868919590e+005 1.027133376932e+005 1.027133376910e+005 1.027133376927e+005 1.027133376918e+005 1.027133376920e+005 1.027133376919e+005 1.027133376917e+005 1.027133376908e+005 1.027133376913e+005 9.304240494771e+004 9.304240495370e+004 9.304240494882e+004 9.304240495217e+004 9.304240495277e+004 9.304240495382e+004 9.304240495238e+004 9.304240495174e+004 9.304240494950e+004 8.202917969131e+004 8.202917967222e+004 8.202917968769e+004 8.202917967222e+004 8.202917966411e+004 8.202917965341e+004 8.202917966040e+004 8.202917966655e+004 8.202917967639e+004 6.912025554790e+004 6.912025561389e+004 6.912025555081e+004 6.912025558506e+004 6.912025558105e+004 6.912025560464e+004 6.912025558108e+004 6.912025558049e+004 6.912025555366e+004 5.335442243800e+004 5.335442219909e+004 5.335442240741e+004 5.335442228373e+004 5.335442232957e+004 5.335442225410e+004 5.335442232377e+004 5.335442228526e+004 5.335442236599e+004 3.293792005237e+004 3.293792087954e+004 3.293792016229e+004 3.293792064202e+004 3.293792051805e+004 3.293792081714e+004 3.293792054631e+004 3.293792063260e+004 3.293792032371e+004 5.329081790080e+003 5.329078790416e+003 5.329081383690e+003 5.329079702367e+003 5.329080535836e+003 5.329079575688e+003 5.329080465556e+003 5.329079868282e+003 5.329080849062e+003 -2.614189340618e+004 -2.614190382180e+004 -2.614190412893e+004 -2.614190575507e+004 -2.614190499202e+004 -2.614191048558e+004 -2.614189856805e+004 -2.614188830802e+004 -2.614189342160e+004 -5.688608439408e+004 -5.688609077758e+004 -5.688609292053e+004 -5.688609890214e+004 -5.688610295106e+004 -5.688608518935e+004 -5.688607973689e+004 -5.688608036229e+004 -5.688606917559e+004 -8.688499504465e+004 -8.688499901980e+004 -8.688498614253e+004 -8.688499974658e+004 -8.688500011207e+004 -8.688499204730e+004 -8.688497471731e+004 -8.688497309053e+004 -8.688498086899e+004 -1.161262516049e+005 -1.161262360416e+005 -1.161262405054e+005 -1.161262427171e+005 -1.161262460653e+005 -1.161262265633e+005 -1.161262286088e+005 -1.161262164895e+005 -1.161262206254e+005 -1.446169974263e+005 -1.446170025871e+005 -1.446170055944e+005 -1.446170121525e+005 -1.446170070675e+005 -1.446169924576e+005 -1.446169906484e+005 -1.446169863853e+005 -1.446169786442e+005 -1.723728880432e+005 -1.723728938715e+005 -1.723728958029e+005 -1.723728995982e+005 -1.723728949665e+005 -1.723728798215e+005 -1.723728744963e+005 -1.723728714474e+005 -1.723728677715e+005 -1.994095514126e+005 -1.994095449991e+005 -1.994095543731e+005 -1.994095520275e+005 -1.994095438338e+005 -1.994095347127e+005 -1.994095194238e+005 -1.994095260381e+005 -1.994095200920e+005 -2.257422089872e+005 -2.257422019779e+005 -2.257422106331e+005 -2.257422080072e+005 -2.257422002217e+005 -2.257421902092e+005 -2.257421835500e+005 -2.257421740728e+005 -2.257421773356e+005 -2.513859846401e+005 -2.513859858065e+005 -2.513859904498e+005 -2.513859875418e+005 -2.513859838233e+005 -2.513859667634e+005 -2.513859595548e+005 -2.513859609303e+005 -2.513859516614e+005 -2.763556725555e+005 -2.763556809510e+005 -2.763556747950e+005 -2.763556700236e+005 -2.763556678025e+005 -2.763556565904e+005 -2.763556456331e+005 -2.763556415000e+005 -2.763556392119e+005 -3.006656905283e+005 -3.006656751094e+005 -3.006656785008e+005 -3.006656689456e+005 -3.006656684968e+005 -3.006656613972e+005 -3.006656625231e+005 -3.006656414835e+005 -3.006656480760e+005 -3.243300865523e+005 -3.243300913372e+005 -3.243300858949e+005 -3.243300768456e+005 -3.243300746771e+005 -3.243300744198e+005 -3.243300632761e+005 -3.243300574919e+005 -3.243300539609e+005 -3.473627193594e+005 -3.473627235709e+005 -3.473627267163e+005 -3.473627120018e+005 -3.473627040612e+005 -3.473627046331e+005 -3.473626971555e+005 -3.473626933356e+005 -3.473626848482e+005 -3.697772087726e+005 -3.697772111114e+005 -3.697772077190e+005 -3.697772021094e+005 -3.697771944912e+005 -3.697771853952e+005 -3.697771796289e+005 -3.697771767700e+005 -3.697771786206e+005 -3.915870299598e+005 -3.915870238060e+005 -3.915870207416e+005 -3.915870122710e+005 -3.915870063530e+005 -3.915869958137e+005 -3.915869922865e+005 -3.915869865546e+005 -3.915869842069e+005 -4.128055129268e+005 -4.128055098560e+005 -4.128055032063e+005 -4.128054968053e+005 -4.128054857033e+005 -4.128054788076e+005 -4.128054773127e+005 -4.128054708052e+005 -4.128054674437e+005 -4.334459053913e+005 -4.334459034231e+005 -4.334458973785e+005 -4.334458885990e+005 -4.334458809992e+005 -4.334458755776e+005 -4.334458685842e+005 -4.334458656697e+005 -4.334458600233e+005 -4.535213388148e+005 -4.535213340529e+005 -4.535213313955e+005 -4.535213258330e+005 -4.535213194047e+005 -4.535213094465e+005 -4.535213026843e+005 -4.535212980078e+005 -4.535212983614e+005 -4.730448393324e+005 -4.730448371145e+005 -4.730448340354e+005 -4.730448293322e+005 -4.730448221672e+005 -4.730448117819e+005 -4.730448074460e+005 -4.730448016389e+005 -4.730448005693e+005 -4.920293256088e+005 -4.920293247590e+005 -4.920293222668e+005 -4.920293177294e+005 -4.920293124676e+005 -4.920293055484e+005 -4.920293017067e+005 -4.920292939589e+005 -4.920292978228e+005 -5.104876102516e+005 -5.104876057709e+005 -5.104876052210e+005 -5.104876036694e+005 -5.104876021184e+005 -5.104875945862e+005 -5.104875906885e+005 -5.104875878804e+005 -5.104875867752e+005 -5.284323919231e+005 -5.284323993792e+005 -5.284323959917e+005 -5.284323928596e+005 -5.284323921871e+005 -5.284323904715e+005 -5.284323846060e+005 -5.284323802314e+005 -5.284323783437e+005 -5.458762875668e+005 -5.458762900362e+005 -5.458762891084e+005 -5.458762835476e+005 -5.458762812138e+005 -5.458762795056e+005 -5.458762757441e+005 -5.458762761361e+005 -5.458762729427e+005 -5.628317710799e+005 -5.628317703580e+005 -5.628317687585e+005 -5.628317660370e+005 -5.628317644600e+005 -5.628317635897e+005 -5.628317596656e+005 -5.628317634268e+005 -5.628317599772e+005 -5.793112302055e+005 -5.793112309020e+005 -5.793112289804e+005 -5.793112252517e+005 -5.793112242362e+005 -5.793112249076e+005 -5.793112214809e+005 -5.793112221582e+005 -5.793112200331e+005 -5.953269517840e+005 -5.953269521493e+005 -5.953269501723e+005 -5.953269495797e+005 -5.953269474423e+005 -5.953269483016e+005 -5.953269467919e+005 -5.953269457127e+005 -5.953269477964e+005 -6.108911209290e+005 -6.108911222881e+005 -6.108911237069e+005 -6.108911234500e+005 -6.108911253441e+005 -6.108911213382e+005 -6.108911203886e+005 -6.108911214319e+005 -6.108911231726e+005 -6.260158355602e+005 -6.260158362770e+005 -6.260158400214e+005 -6.260158401264e+005 -6.260158388042e+005 -6.260158351122e+005 -6.260158365104e+005 -6.260158377406e+005 -6.260158388710e+005 -6.407130909007e+005 -6.407130942891e+005 -6.407130945038e+005 -6.407130938868e+005 -6.407130908742e+005 -6.407130916808e+005 -6.407130936326e+005 -6.407130909582e+005 -6.407130918105e+005 -6.549947885375e+005 -6.549947888710e+005 -6.549947887478e+005 -6.549947882268e+005 -6.549947872944e+005 -6.549947855326e+005 -6.549947880220e+005 -6.549947863525e+005 -6.549947860487e+005 -6.688727418950e+005 -6.688727388755e+005 -6.688727405518e+005 -6.688727395422e+005 -6.688727367057e+005 -6.688727379373e+005 -6.688727395348e+005 -6.688727389149e+005 -6.688727387594e+005 -6.823586733919e+005 -6.823586747038e+005 -6.823586747638e+005 -6.823586754553e+005 -6.823586718679e+005 -6.823586718450e+005 -6.823586751076e+005 -6.823586744880e+005 -6.823586729643e+005 -6.954642373337e+005 -6.954642384086e+005 -6.954642377074e+005 -6.954642364495e+005 -6.954642348826e+005 -6.954642358357e+005 -6.954642386905e+005 -6.954642382986e+005 -6.954642358095e+005 -7.082009852460e+005 -7.082009862202e+005 -7.082009860121e+005 -7.082009865957e+005 -7.082009836679e+005 -7.082009850742e+005 -7.082009871743e+005 -7.082009861791e+005 -7.082009845080e+005 -7.205804002092e+005 -7.205804012039e+005 -7.205804024947e+005 -7.205803998502e+005 -7.205804000718e+005 -7.205804011662e+005 -7.205804014812e+005 -7.205804024704e+005 -7.205803990533e+005 -7.326138833188e+005 -7.326138842157e+005 -7.326138837779e+005 -7.326138817939e+005 -7.326138838051e+005 -7.326138833441e+005 -7.326138824763e+005 -7.326138827345e+005 -7.326138821216e+005 -7.443127625987e+005 -7.443127618269e+005 -7.443127613953e+005 -7.443127610257e+005 -7.443127581301e+005 -7.443127582435e+005 -7.443127607553e+005 -7.443127594285e+005 -7.443127591956e+005 -7.556882871600e+005 -7.556882846773e+005 -7.556882844454e+005 -7.556882826369e+005 -7.556882809233e+005 -7.556882812957e+005 -7.556882837067e+005 -7.556882824929e+005 -7.556882834510e+005 -7.667516352229e+005 -7.667516344644e+005 -7.667516344509e+005 -7.667516336204e+005 -7.667516328413e+005 -7.667516327426e+005 -7.667516339588e+005 -7.667516343370e+005 -7.667516340890e+005 -7.775139209309e+005 -7.775139231175e+005 -7.775139236169e+005 -7.775139243271e+005 -7.775139229074e+005 -7.775139236644e+005 -7.775139249619e+005 -7.775139236686e+005 -7.775139228783e+005 -7.879861958355e+005 -7.879861937349e+005 -7.879861963078e+005 -7.879861964567e+005 -7.879861951622e+005 -7.879861975163e+005 -7.879861961039e+005 -7.879861963340e+005 -7.879861957942e+005 -7.981794297568e+005 -7.981794283933e+005 -7.981794282170e+005 -7.981794279646e+005 -7.981794275995e+005 -7.981794294396e+005 -7.981794290968e+005 -7.981794296119e+005 -7.981794277054e+005 -8.081045332349e+005 -8.081045365634e+005 -8.081045370160e+005 -8.081045368045e+005 -8.081045361791e+005 -8.081045377838e+005 -8.081045374746e+005 -8.081045376323e+005 -8.081045382242e+005 -8.177723730678e+005 -8.177723764876e+005 -8.177723755619e+005 -8.177723755935e+005 -8.177723785754e+005 -8.177723766340e+005 -8.177723779931e+005 -8.177723780218e+005 -8.177723783141e+005 -8.271937430828e+005 -8.271937446262e+005 -8.271937450611e+005 -8.271937440150e+005 -8.271937453699e+005 -8.271937458080e+005 -8.271937469510e+005 -8.271937454993e+005 -8.271937457347e+005 -8.363793828412e+005 -8.363793817095e+005 -8.363793819026e+005 -8.363793832069e+005 -8.363793818366e+005 -8.363793826601e+005 -8.363793827648e+005 -8.363793823203e+005 -8.363793818891e+005 -8.453399742108e+005 -8.453399753698e+005 -8.453399737791e+005 -8.453399743869e+005 -8.453399742063e+005 -8.453399749680e+005 -8.453399750494e+005 -8.453399739670e+005 -8.453399751979e+005 -8.540861581924e+005 -8.540861552661e+005 -8.540861545982e+005 -8.540861560722e+005 -8.540861551922e+005 -8.540861544386e+005 -8.540861550536e+005 -8.540861545169e+005 -8.540861559000e+005 -8.626285127412e+005 -8.626285097175e+005 -8.626285082403e+005 -8.626285095919e+005 -8.626285097296e+005 -8.626285100439e+005 -8.626285098667e+005 -8.626285103454e+005 -8.626285082679e+005 -8.709775771145e+005 -8.709775760629e+005 -8.709775747435e+005 -8.709775756044e+005 -8.709775761845e+005 -8.709775760112e+005 -8.709775761827e+005 -8.709775749372e+005 -8.709775749264e+005 -8.791438486047e+005 -8.791438466767e+005 -8.791438454899e+005 -8.791438458356e+005 -8.791438453619e+005 -8.791438438800e+005 -8.791438456437e+005 -8.791438450792e+005 -8.791438445493e+005 -8.871377737491e+005 -8.871377708854e+005 -8.871377701983e+005 -8.871377683578e+005 -8.871377684531e+005 -8.871377681875e+005 -8.871377684517e+005 -8.871377671290e+005 -8.871377664074e+005 -8.949697588021e+005 -8.949697578678e+005 -8.949697568347e+005 -8.949697554655e+005 -8.949697548658e+005 -8.949697539817e+005 -8.949697540890e+005 -8.949697526967e+005 -8.949697532195e+005 -9.026501787462e+005 -9.026501785953e+005 -9.026501764256e+005 -9.026501777214e+005 -9.026501754199e+005 -9.026501749883e+005 -9.026501747085e+005 -9.026501735667e+005 -9.026501724722e+005 -9.101893690338e+005 -9.101893680427e+005 -9.101893689773e+005 -9.101893667004e+005 -9.101893663757e+005 -9.101893652231e+005 -9.101893649956e+005 -9.101893648013e+005 -9.101893637277e+005 -9.175976302295e+005 -9.175976318076e+005 -9.175976311706e+005 -9.175976309911e+005 -9.175976295594e+005 -9.175976291295e+005 -9.175976282734e+005 -9.175976268786e+005 -9.175976262038e+005 -9.248852379653e+005 -9.248852398451e+005 -9.248852405757e+005 -9.248852391108e+005 -9.248852375004e+005 -9.248852376031e+005 -9.248852360317e+005 -9.248852346821e+005 -9.248852345252e+005 -9.320624335557e+005 -9.320624358923e+005 -9.320624357458e+005 -9.320624357118e+005 -9.320624347401e+005 -9.320624329657e+005 -9.320624317756e+005 -9.320624314804e+005 -9.320624308044e+005 -9.391394383908e+005 -9.391394364490e+005 -9.391394373112e+005 -9.391394372458e+005 -9.391394369311e+005 -9.391394343711e+005 -9.391394333480e+005 -9.391394341470e+005 -9.391394338167e+005 -9.461264399949e+005 -9.461264394286e+005 -9.461264391919e+005 -9.461264390955e+005 -9.461264381266e+005 -9.461264358901e+005 -9.461264365351e+005 -9.461264359038e+005 -9.461264362349e+005 -9.530336154698e+005 -9.530336146923e+005 -9.530336146440e+005 -9.530336132146e+005 -9.530336130628e+005 -9.530336120186e+005 -9.530336117405e+005 -9.530336111503e+005 -9.530336118588e+005 -9.598711178082e+005 -9.598711169074e+005 -9.598711172781e+005 -9.598711169107e+005 -9.598711157758e+005 -9.598711156567e+005 -9.598711150366e+005 -9.598711149668e+005 -9.598711137735e+005 -9.666490853183e+005 -9.666490859891e+005 -9.666490867645e+005 -9.666490863039e+005 -9.666490855677e+005 -9.666490858682e+005 -9.666490852188e+005 -9.666490852529e+005 -9.666490849797e+005 -9.733776468296e+005 -9.733776476004e+005 -9.733776481438e+005 -9.733776475591e+005 -9.733776475135e+005 -9.733776477357e+005 -9.733776469199e+005 -9.733776474513e+005 -9.733776475213e+005 -9.800669162323e+005 -9.800669163461e+005 -9.800669166897e+005 -9.800669168153e+005 -9.800669156722e+005 -9.800669155119e+005 -9.800669158163e+005 -9.800669160819e+005 -9.800669159245e+005 -9.867269972464e+005 -9.867269980686e+005 -9.867269987005e+005 -9.867269986278e+005 -9.867269983233e+005 -9.867269976449e+005 -9.867269976448e+005 -9.867269978150e+005 -9.867269979272e+005 -9.933679935641e+005 -9.933679939960e+005 -9.933679942478e+005 -9.933679940977e+005 -9.933679941909e+005 -9.933679937318e+005 -9.933679937315e+005 -9.933679938953e+005 -9.933679937374e+005 -1.000000000000e+006 -1.000000000000e+006 -1.000000000000e+006 -1.000000000000e+006 -1.000000000000e+006 -1.000000000000e+006 -1.000000000000e+006 -1.000000000000e+006 -1.000000000000e+006 
        </DataArray>
        <DataArray type="Float64" Name="NONWET_PRESSURE" format="ascii">