<?xml version="1.0"?>
<VTKFile type="UnstructuredGrid" version="0.1" byte_order="LittleEndian">
  <UnstructuredGrid>
    <Piece NumberOfPoints="909" NumberOfCells="800">
      <Points>
        <DataArray type="Float64" NumberOfComponents="3" format="ascii">
          0.000000000000e+000 0.000000000000e+000 0.000000000000e+000
          2.000000000000e+000 0.000000000000e+000 0.000000000000e+000
          2.000000000000e+000 2.500000000000e+000 0.000000000000e+000
          0.000000000000e+000 2.500000000000e+000 0.000000000000e+000
          2.000000000000e+000 5.000000000000e+000 0.000000000000e+000
          0.000000000000e+000 5.000000000000e+000 0.000000000000e+000
          2.000000000000e+000 7.500000000000e+000 0.000000000000e+000
          0.000000000000e+000 7.500000000000e+000 0.000000000000e+000
          2.000000000000e+000 1.000000000000e+001 0.000000000000e+000
          0.000000000000e+000 1.000000000000e+001 0.000000000000e+000
          2.000000000000e+000 1.250000000000e+001 0.000000000000e+000
          0.000000000000e+000 1.250000000000e+001 0.000000000000e+000
          2.000000000000e+000 1.500000000000e+001 0.000000000000e+000
          0.000000000000e+000 1.500000000000e+001 0.000000000000e+000
          2.000000000000e+000 1.750000000000e+001 0.000000000000e+000
          0.000000000000e+000 1.750000000000e+001 0.000000000000e+000
          2.000000000000e+000 2.000000000000e+001 0.000000000000e+000
          0.000000000000e+000 2.000000000000e+001 0.000000000000e+000
          4.000000000000e+000 0.000000000000e+000 0.000000000000e+000
          4.000000000000e+000 2.500000000000e+000 0.000000000000e+000
          4.000000000000e+000 5.000000000000e+000 0.000000000000e+000
          4.000000000000e+000 7.500000000000e+000 0.000000000000e+000
          4.000000000000e+000 1.000000000000e+001 0.000000000000e+000
          4.000000000000e+000 1.250000000000e+001 0.000000000000e+000
          4.000000000000e+000 1.500000000000e+001 0.000000000000e+000
          4.000000000000e+000 1.750000000000e+001 0.000000000000e+000
          4.000000000000e+000 2.000000000000e+001 0.000000000000e+000
          6.000000000000e+000 0.000000000000e+000 0.000000000000e+000
          6.000000000000e+000 2.500000000000e+000 0.000000000000e+000
          6.000000000000e+000 5.000000000000e+000 0.000000000000e+000
          6.000000000000e+000 7.500000000000e+000 0.000000000000e+000
          6.000000000000e+000 1.000000000000e+001 0.000000000000e+000
          6.000000000000e+000 1.250000000000e+001 0.000000000000e+000
          6.000000000000e+000 1.500000000000e+001 0.000000000000e+000
          6.000000000000e+000 1.750000000000e+001 0.000000000000e+000
          6.000000000000e+000 2.000000000000e+001 0.000000000000e+000
          8.000000000000e+000 0.000000000000e+000 0.000000000000e+000
          8.000000000000e+000 2.500000000000e+000 0.000000000000e+000
          8.000000000000e+000 5.000000000000e+000 0.000000000000e+000
          8.000000000000e+000 7.500000000000e+000 0.000000000000e+000
          8.000000000000e+000 1.000000000000e+001 0.000000000000e+000
          8.000000000000e+000 1.250000000000e+001 0.000000000000e+000
          8.000000000000e+000 1.500000000000e+001 0.000000000000e+000
          8.000000000000e+000 1.750000000000e+001 0.000000000000e+000
          8.000000000000e+000 2.000000000000e+001 0.000000000000e+000
          1.000000000000e+001 0.000000000000e+000 0.000000000000e+000
          1.000000000000e+001 2.500000000000e+000 0.000000000000e+000
          1.000000000000e+001 5.000000000000e+000 0.000000000000e+000
          1.000000000000e+001 7.500000000000e+000 0.000000000000e+000
          1.000000000000e+001 1.000000000000e+001 0.000000000000e+000
          1.000000000000e+001 1.250000000000e+001 0.000000000000e+000
          1.000000000000e+001 1.500000000000e+001 0.000000000000e+000
          1.000000000000e+001 1.750000000000e+001 0.000000000000e+000
          1.000000000000e+001 2.000000000000e+001 0.000000000000e+000
          1.200000000000e+001 0.000000000000e+000 0.000000000000e+000
          1.200000000000e+001 2.500000000000e+000 0.000000000000e+000
          1.200000000000e+001 5.000000000000e+000 0.000000000000e+000
          1.200000000000e+001 7.500000000000e+000 0.000000000000e+000
          1.200000000000e+001 1.000000000000e+001 0.000000000000e+000
          1.200000000000e+001 1.250000000000e+001 0.000000000000e+000
          1.200000000000e+001 1.500000000000e+001 0.000000000000e+000
          1.200000000000e+001 1.750000000000e+001 0.000000000000e+000
          1.200000000000e+001 2.000000000000e+001 0.000000000000e+000
          1.400000000000e+001 0.000000000000e+000 0.000000000000e+000
          1.400000000000e+001 2.500000000000e+000 0.000000000000e+000
          1.400000000000e+001 5.000000000000e+000 0.000000000000e+000
          1.400000000000e+001 7.500000000000e+000 0.000000000000e+000
          1.400000000000e+001 1.000000000000e+001 0.000000000000e+000
          1.400000000000e+001 1.250000000000e+001 0.000000000000e+000
          1.400000000000e+001 1.500000000000e+001 0.000000000000e+000
          1.400000000000e+001 1.750000000000e+001 0.000000000000e+000
          1.400000000000e+001 2.000000000000e+001 0.000000000000e+000
          1.600000000000e+001 0.000000000000e+000 0.000000000000e+000
          1.600000000000e+001 2.500000000000e+000 0.000000000000e+000
          1.600000000000e+001 5.000000000000e+000 0.000000000000e+000
          1.600000000000e+001 7.500000000000e+000 0.000000000000e+000
          1.600000000000e+001 1.000000000000e+001 0.000000000000e+000
          1.600000000000e+001 1.250000000000e+001 0.000000000000e+000
          1.600000000000e+001 1.500000000000e+001 0.000000000000e+000
          1.600000000000e+001 1.750000000000e+001 0.000000000000e+000
          1.600000000000e+001 2.000000000000e+001 0.000000000000e+000
          1.800000000000e+001 0.000000000000e+000 0.000000000000e+000
          1.800000000000e+001 2.500000000000e+000 0.000000000000e+000
          1.800000000000e+001 5.000000000000e+000 0.000000000000e+000
          1.800000000000e+001 7.500000000000e+000 0.000000000000e+000
          1.800000000000e+001 1.000000000000e+001 0.000000000000e+000
          1.800000000000e+001 1.250000000000e+001 0.000000000000e+000
          1.800000000000e+001 1.500000000000e+001 0.000000000000e+000
          1.800000000000e+001 1.750000000000e+001 0.000000000000e+000
          1.800000000000e+001 2.000000000000e+001 0.000000000000e+000
          2.000000000000e+001 0.000000000000e+000 0.000000000000e+000
          2.000000000000e+001 2.500000000000e+000 0.000000000000e+000
          2.000000000000e+001 5.000000000000e+000 0.000000000000e+000
          2.000000000000e+001 7.500000000000e+000 0.000000000000e+000
          2.000000000000e+001 1.000000000000e+001 0.000000000000e+000
          2.000000000000e+001 1.250000000000e+001 0.000000000000e+000
          2.000000000000e+001 1.500000000000e+001 0.000000000000e+000
          2.000000000000e+001 1.750000000000e+001 0.000000000000e+000
          2.000000000000e+001 2.000000000000e+001 0.000000000000e+000
          2.200000000000e+001 0.000000000000e+000 0.000000000000e+000
          2.200000000000e+001 2.500000000000e+000 0.000000000000e+000
          2.200000000000e+001 5.000000000000e+000 0.000000000000e+000
          2.200000000000e+001 7.500000000000e+000 0.000000000000e+000
          2.200000000000e+001 1.000000000000e+001 0.000000000000e+000
          2.200000000000e+001 1.250000000000e+001 0.000000000000e+000
          2.200000000000e+001 1.500000000000e+001 0.000000000000e+000
          2.200000000000e+001 1.750000000000e+001 0.000000000000e+000
          2.200000000000e+001 2.000000000000e+001 0.000000000000e+000
          2.400000000000e+001 0.000000000000e+000 0.000000000000e+000
          2.400000000000e+001 2.500000000000e+000 0.000000000000e+000
          2.400000000000e+001 5.000000000000e+000 0.000000000000e+000
          2.400000000000e+001 7.500000000000e+000 0.000000000000e+000
          2.400000000000e+001 1.000000000000e+001 0.000000000000e+000
          2.400000000000e+001 1.250000000000e+001 0.000000000000e+000
          2.400000000000e+001 1.500000000000e+001 0.000000000000e+000
          2.400000000000e+001 1.750000000000e+001 0.000000000000e+000
          2.400000000000e+001 2.000000000000e+001 0.000000000000e+000
          2.600000000000e+001 0.000000000000e+000 0.000000000000e+000
          2.600000000000e+001 2.500000000000e+000 0.000000000000e+000
          2.600000000000e+001 5.000000000000e+000 0.000000000000e+000
          2.600000000000e+001 7.500000000000e+000 0.000000000000e+000
          2.600000000000e+001 1.000000000000e+001 0.000000000000e+000
          2.600000000000e+001 1.250000000000e+001 0.000000000000e+000
          2.600000000000e+001 1.500000000000e+001 0.000000000000e+000
          2.600000000000e+001 1.750000000000e+001 0.000000000000e+000
          2.600000000000e+001 2.000000000000e+001 0.000000000000e+000
          2.800000000000e+001 0.000000000000e+000 0.000000000000e+000
          2.800000000000e+001 2.500000000000e+000 0.000000000000e+000
          2.800000000000e+001 5.000000000000e+000 0.000000000000e+000
          2.800000000000e+001 7.500000000000e+000 0.000000000000e+000
          2.800000000000e+001 1.000000000000e+001 0.000000000000e+000
          2.800000000000e+001 1.250000000000e+001 0.000000000000e+000
          2.800000000000e+001 1.500000000000e+001 0.000000000000e+000
          2.800000000000e+001 1.750000000000e+001 0.000000000000e+000
          2.800000000000e+001 2.000000000000e+001 0.000000000000e+000
          3.000000000000e+001 0.000000000000e+000 0.000000000000e+000
          3.000000000000e+001 2.500000000000e+000 0.000000000000e+000
          3.000000000000e+001 5.000000000000e+000 0.000000000000e+000
          3.000000000000e+001 7.500000000000e+000 0.000000000000e+000
[...]
      <PointData Scalars="CAPILLARY_PRESSURE">
        <DataArray type="Float64" Name="CAPILLARY_PRESSURE" format="ascii">
          2.137111201482e+005 2.090276030513e+005 2.090276030513e+005 2.137111201482e+005 2.090276030513e+005 2.137111201482e+005 2.090276030512e+005 2.137111201482e+005 2.090276030512e+005 2.137111201482e+005 2.090276030512e+005 2.137111201482e+005 2.090276030512e+005 2.137111201482e+005 2.090276030512e+005 2.137111201482e+005 2.090276030512e+005 2.137111201482e+005 2.042773586739e+005 2.042773586739e+005 2.042773586739e+005 2.042773586739e+005 2.042773586739e+005 2.042773586739e+005 2.042773586739e+005 2.042773586739e+005 2.042773586739e+005 1.994515367487e+005 1.994515367487e+005 1.994515367487e+005 1.994515367487e+005 1.994515367487e+005 1.994515367487e+005 1.994515367487e+005 1.994515367486e+005 1.994515367486e+005 1.945401662094e+005 1.945401662094e+005 1.945401662094e+005 1.945401662094e+005 1.945401662093e+005 1.945401662093e+005 1.945401662093e+005 1.945401662093e+005 1.945401662093e+005 1.895318327126e+005 1.895318327126e+005 1.895318327126e+005 1.895318327126e+005 1.895318327126e+005 1.895318327126e+005 1.895318327125e+005 1.895318327125e+005 1.895318327125e+005 1.844134201963e+005 1.844134201963e+005 1.844134201963e+005 1.844134201963e+005 1.844134201962e+005 1.844134201962e+005 1.844134201962e+005 1.844134201962e+005 1.844134201962e+005 1.791697412820e+005 1.791697412820e+005 1.791697412819e+005 1.791697412819e+005 1.791697412819e+005 1.791697412819e+005 1.791697412819e+005 1.791697412819e+005 1.791697412819e+005 1.737830633992e+005 1.737830633992e+005 1.737830633992e+005 1.737830633992e+005 1.737830633992e+005 1.737830633991e+005 1.737830633991e+005 1.737830633991e+005 1.737830633991e+005 1.682325065219e+005 1.682325065219e+005 1.682325065219e+005 1.682325065218e+005 1.682325065218e+005 1.682325065218e+005 1.682325065217e+005 1.682325065217e+005 1.682325065217e+005 1.624932387508e+005 1.624932387508e+005 1.624932387507e+005 1.624932387507e+005 1.624932387507e+005 1.624932387506e+005 1.624932387506e+005 1.624932387506e+005 1.624932387505e+005 1.565353953496e+005 1.565353953496e+005 1.565353953495e+005 1.565353953494e+005 1.565353953492e+005 1.565353953491e+005 1.565353953490e+005 1.565353953488e+005 1.565353953490e+005 1.503226013369e+005 1.503226013368e+005 1.503226013366e+005 1.503226013368e+005 1.503226013367e+005 1.503226013366e+005 1.503226013366e+005 1.503226013367e+005 1.503226013359e+005 1.438098786754e+005 1.438098786755e+005 1.438098786757e+005 1.438098786750e+005 1.438098786750e+005 1.438098786748e+005 1.438098786745e+005 1.438098786737e+005 1.438098786758e+005 1.369407059726e+005 1.369407059725e+005 1.369407059718e+005 1.369407059726e+005 1.369407059715e+005 1.369407059715e+005 1.369407059716e+005 1.369407059731e+005 1.369407059689e+005 1.296425082197e+005 1.296425082193e+005 1.296425082201e+005 1.296425082198e+005 1.296425082225e+005 1.296425082218e+005 1.296425082219e+005 1.296425082193e+005 1.296425082244e+005 1.218202412706e+005 1.218202412716e+005 1.218202412728e+005 1.218202412699e+005 1.218202412656e+005 1.218202412695e+005 1.218202412706e+005 1.218202412708e+005 1.218202412745e+005 1.133448590088e+005 1.133448590172e+005 1.133448590082e+005 1.133448590233e+005 1.133448590361e+005 1.133448590304e+005 1.133448590256e+005 1.133448590464e+005 1.133448590092e+005 1.040376188986e+005 1.040376188238e+005 1.040376188621e+005 1.040376188229e+005 1.040376187917e+005 1.040376187995e+005 1.040376188265e+005 1.040376187463e+005 1.040376188578e+005 9.363399861712e+004 9.363399896209e+004 9.363399885371e+004 9.363399897614e+004 9.363399908739e+004 9.363399909830e+004 9.363399907335e+004 9.363399928420e+004 9.363399907716e+004 8.173057238578e+004 8.173057128285e+004 8.173057160137e+004 8.173057131239e+004 8.173057101441e+004 8.173057104677e+004 8.173057101076e+004 8.173057057641e+004 8.173057093851e+004 6.766088021244e+004 6.766088290526e+004 6.766088176981e+004 6.766088219323e+004 6.766088270072e+004 6.766088245020e+004 6.766088245479e+004 6.766088344679e+004 6.766088245563e+004 5.021413490760e+004 5.021412901512e+004 5.021413127198e+004 5.021413005733e+004 5.021412858447e+004 5.021412919857e+004 5.021412859306e+004 5.021412659440e+004 5.021412848534e+004 2.712126346153e+004 2.712127597102e+004 2.712126880719e+004 2.712127045883e+004 2.712127235956e+004 2.712126983007e+004 2.712127125649e+004 2.712127517277e+004 2.712127071581e+004 -4.087590572788e+003 -4.087580903185e+003 -4.087571866016e+003 -4.087571357387e+003 -4.087564353292e+003 -4.087566056517e+003 -4.087569083104e+003 -4.087562540007e+003 -4.087573946928e+003 -3.731707044149e+004 -3.731705604870e+004 -3.731705236698e+004 -3.731704932590e+004 -3.731703863741e+004 -3.731703840098e+004 -3.731703675058e+004 -3.731704757861e+004 -3.731705187767e+004 -6.970268458649e+004 -6.970268921533e+004 -6.970268762464e+004 -6.970267805293e+004 -6.970267159001e+004 -6.970266608442e+004 -6.970266795171e+004 -6.970267953723e+004 -6.970268604063e+004 -1.012497252082e+005 -1.012497160381e+005 -1.012497086981e+005 -1.012496974252e+005 -1.012496956679e+005 -1.012497014058e+005 -1.012496997138e+005 -1.012496975243e+005 -1.012496942278e+005 -1.319652375930e+005 -1.319652330507e+005 -1.319652190907e+005 -1.319652178359e+005 -1.319652138541e+005 -1.319652163410e+005 -1.319652118406e+005 -1.319652145825e+005 -1.319652108302e+005 -1.618616674056e+005 -1.618616641091e+005 -1.618616592818e+005 -1.618616608063e+005 -1.618616524284e+005 -1.618616605747e+005 -1.618616526514e+005 -1.618616512035e+005 -1.618616526342e+005 -1.909533470933e+005 -1.909533622666e+005 -1.909533506321e+005 -1.909533525657e+005 -1.909533554586e+005 -1.909533507328e+005 -1.909533474879e+005 -1.909533437641e+005 -1.909533486110e+005 -2.192550467255e+005 -2.192550576165e+005 -2.192550616995e+005 -2.192550631941e+005 -2.192550739436e+005 -2.192550591294e+005 -2.192550559410e+005 -2.192550469611e+005 -2.192550501288e+005 -2.467816247706e+005 -2.467816400718e+005 -2.467816326206e+005 -2.467816448154e+005 -2.467816500989e+005 -2.467816533792e+005 -2.467816430547e+005 -2.467816363989e+005 -2.467816285345e+005 -2.735479145032e+005 -2.735479253937e+005 -2.735479286230e+005 -2.735479335378e+005 -2.735479364031e+005 -2.735479418954e+005 -2.735479267463e+005 -2.735479119995e+005 -2.735479153131e+005 -2.995685878552e+005 -2.995685949101e+005 -2.995685985724e+005 -2.995686066993e+005 -2.995686123259e+005 -2.995685946687e+005 -2.995685876305e+005 -2.995685862723e+005 -2.995685741564e+005 -3.248581356969e+005 -3.248581400108e+005 -3.248581281154e+005 -3.248581428930e+005 -3.248581441197e+005 -3.248581361163e+005 -3.248581180883e+005 -3.248581155389e+005 -3.248581229114e+005 -3.494308479221e+005 -3.494308325818e+005 -3.494308376058e+005 -3.494308405006e+005 -3.494308443372e+005 -3.494308249197e+005 -3.494308266609e+005 -3.494308141286e+005 -3.494308180742e+005 -3.733008023157e+005 -3.733008076028e+005 -3.733008109429e+005 -3.733008178963e+005 -3.733008131064e+005 -3.733007985797e+005 -3.733007966584e+005 -3.733007922180e+005 -3.733007843950e+005 -3.964819877814e+005 -3.964819936856e+005 -3.964819958123e+005 -3.964819998446e+005 -3.964819953987e+005 -3.964819803305e+005 -3.964819749779e+005 -3.964819718609e+005 -3.964819681510e+005 -4.189881855041e+005 -4.189881791354e+005 -4.189881886271e+005 -4.189881864266e+005 -4.189881783545e+005 -4.189881692982e+005 -4.189881540175e+005 -4.189881606124e+005 -4.189881546546e+005 -4.408330351092e+005 -4.408330281274e+005 -4.408330368546e+005 -4.408330343203e+005 -4.408330266164e+005 -4.408330166562e+005 -4.408330100175e+005 -4.408330005414e+005 -4.408330038021e+005 -4.620300858614e+005 -4.620300870448e+005 -4.620300917335e+005 -4.620300888848e+005 -4.620300852223e+005 -4.620300682033e+005 -4.620300610170e+005 -4.620300624011e+005 -4.620300531339e+005 -4.825927737199e+005 -4.825927821264e+005 -4.825927759996e+005 -4.825927712675e+005 -4.825927690856e+005 -4.825927579047e+005 -4.825927469675e+005 -4.825927428446e+005 -4.825927405595e+005 -5.025344301725e+005 -5.025344147607e+005 -5.025344181716e+005 -5.025344086429e+005 -5.025344082217e+005 -5.025344011457e+005 -5.025344022883e+005 -5.025343812581e+005 -5.025343878536e+005 -5.218682498572e+005 -5.218682546468e+005 -5.218682492177e+005 -5.218682401867e+005 -5.218682380378e+005 -5.218682377981e+005 -5.218682266676e+005 -5.218682208914e+005 -5.218682173630e+005 -5.406074044042e+005 -5.406074086190e+005 -5.406074117733e+005 -5.406073970717e+005 -5.406073891452e+005 -5.406073897300e+005 -5.406073822626e+005 -5.406073784491e+005 -5.406073699638e+005 -5.587649300570e+005 -5.587649323980e+005 -5.587649290119e+005 -5.587649234114e+005 -5.587649158033e+005 -5.587649067169e+005 -5.587649009583e+005 -5.587648981043e+005 -5.587648999566e+005 -5.763537773747e+005 -5.763537712226e+005 -5.763537681626e+005 -5.763537596984e+005 -5.763537537877e+005 -5.763537432555e+005 -5.763537397341e+005 -5.763537340059e+005 -5.763537316595e+005 -5.933867839397e+005 -5.933867808700e+005 -5.933867742235e+005 -5.933867678270e+005 -5.933867567304e+005 -5.933867498399e+005 -5.933867483492e+005 -5.933867418445e+005 -5.933867384840e+005 -6.098767237833e+005 -6.098767218158e+005 -6.098767157735e+005 -6.098767069973e+005 -6.098766994014e+005 -6.098766939835e+005 -6.098766869933e+005 -6.098766840809e+005 -6.098766784352e+005 -6.258362683314e+005 -6.258362635701e+005 -6.258362609143e+005 -6.258362553542e+005 -6.258362489288e+005 -6.258362389733e+005 -6.258362322135e+005 -6.258362275385e+005 -6.258362278926e+005 -6.412779964901e+005 -6.412779942726e+005 -6.412779911946e+005 -6.412779864931e+005 -6.412779793302e+005 -6.412779689469e+005 -6.412779646127e+005 -6.412779588067e+005 -6.412779577376e+005 -6.562143930338e+005 -6.562143921843e+005 -6.562143896929e+005 -6.562143851569e+005 -6.562143798965e+005 -6.562143729788e+005 -6.562143691383e+005 -6.562143613913e+005 -6.562143652555e+005 -6.706578503205e+005 -6.706578458400e+005 -6.706578452907e+005 -6.706578437400e+005 -6.706578421901e+005 -6.706578346590e+005 -6.706578307622e+005 -6.706578279547e+005 -6.706578268497e+005 -6.846206598314e+005 -6.846206672877e+005 -6.846206639007e+005 -6.846206607693e+005 -6.846206600975e+005 -6.846206583827e+005 -6.846206525179e+005 -6.846206481437e+005 -6.846206462562e+005 -6.981150429019e+005 -6.981150453713e+005 -6.981150444439e+005 -6.981150388837e+005 -6.981150365504e+005 -6.981150348428e+005 -6.981150310817e+005 -6.981150314741e+005 -6.981150282808e+005 -7.111530871840e+005 -7.111530864622e+005 -7.111530848629e+005 -7.111530821417e+005 -7.111530805652e+005 -7.111530796953e+005 -7.111530757715e+005 -7.111530795330e+005 -7.111530760835e+005 -7.237468008913e+005 -7.237468015878e+005 -7.237467996664e+005 -7.237467959380e+005 -7.237467949228e+005 -7.237467955945e+005 -7.237467921681e+005 -7.237467928455e+005 -7.237467907205e+005 -7.359080952002e+005 -7.359080955656e+005 -7.359080935887e+005 -7.359080929963e+005 -7.359080908591e+005 -7.359080917186e+005 -7.359080902092e+005 -7.359080891301e+005 -7.359080912138e+005 -7.476487805443e+005 -7.476487819034e+005 -7.476487833224e+005 -7.476487830656e+005 -7.476487849598e+005 -7.476487809541e+005 -7.476487800047e+005 -7.476487810481e+005 -7.476487827887e+005 -7.589805783398e+005 -7.589805790566e+005 -7.589805828011e+005 -7.589805829062e+005 -7.589805815841e+005 -7.589805778922e+005 -7.589805792905e+005 -7.589805805207e+005 -7.589805816512e+005 -7.699151028089e+005 -7.699151061974e+005 -7.699151064121e+005 -7.699151057951e+005 -7.699151027826e+005 -7.699151035893e+005 -7.699151055412e+005 -7.699151028669e+005 -7.699151037191e+005 -7.804638675280e+005 -7.804638678615e+005 -7.804638677383e+005 -7.804638672174e+005 -7.804638662850e+005 -7.804638645233e+005 -7.804638670128e+005 -7.804638653433e+005 -7.804638650395e+005 -7.906382885610e+005 -7.906382855415e+005 -7.906382872178e+005 -7.906382862083e+005 -7.906382833718e+005 -7.906382846035e+005 -7.906382862010e+005 -7.906382855811e+005 -7.906382854256e+005 -8.004496794509e+005 -8.004496807627e+005 -8.004496808227e+005 -8.004496815143e+005 -8.004496779269e+005 -8.004496779040e+005 -8.004496811667e+005 -8.004496805471e+005 -8.004496790234e+005 -8.099092721200e+005 -8.099092731949e+005 -8.099092724938e+005 -8.099092712358e+005 -8.099092696689e+005 -8.099092706221e+005 -8.099092734769e+005 -8.099092730850e+005 -8.099092705959e+005 -8.190281803817e+005 -8.190281813559e+005 -8.190281811479e+005 -8.190281817315e+005 -8.190281788037e+005 -8.190281802100e+005 -8.190281823101e+005 -8.190281813149e+005 -8.190281796438e+005 -8.278174326206e+005 -8.278174336153e+005 -8.278174349060e+005 -8.278174322616e+005 -8.278174324831e+005 -8.278174335775e+005 -8.278174338926e+005 -8.278174348818e+005 -8.278174314647e+005 -8.362879567629e+005 -8.362879576598e+005 -8.362879572221e+005 -8.362879552381e+005 -8.362879572493e+005 -8.362879567882e+005 -8.362879559205e+005 -8.362879561787e+005 -8.362879555658e+005 -8.444505878632e+005 -8.444505870914e+005 -8.444505866598e+005 -8.444505862902e+005 -8.444505833946e+005 -8.444505835081e+005 -8.444505860198e+005 -8.444505846931e+005 -8.444505844602e+005 -8.523160610933e+005 -8.523160586107e+005 -8.523160583787e+005 -8.523160565702e+005 -8.523160548567e+005 -8.523160552291e+005 -8.523160576400e+005 -8.523160564263e+005 -8.523160573844e+005 -8.598950187521e+005 -8.598950179936e+005 -8.598950179801e+005 -8.598950171495e+005 -8.598950163705e+005 -8.598950162718e+005 -8.598950174880e+005 -8.598950178662e+005 -8.598950176181e+005 -8.671980162181e+005 -8.671980184046e+005 -8.671980189041e+005 -8.671980196143e+005 -8.671980181945e+005 -8.671980189516e+005 -8.671980202491e+005 -8.671980189558e+005 -8.671980181655e+005 -8.742355227216e+005 -8.742355206210e+005 -8.742355231939e+005 -8.742355233428e+005 -8.742355220483e+005 -8.742355244024e+005 -8.742355229900e+005 -8.742355232201e+005 -8.742355226803e+005 -8.810179016360e+005 -8.810179002724e+005 -8.810179000961e+005 -8.810178998437e+005 -8.810178994787e+005 -8.810179013187e+005 -8.810179009760e+005 -8.810179014911e+005 -8.810178995846e+005 -8.875554324994e+005 -8.875554358279e+005 -8.875554362805e+005 -8.875554360690e+005 -8.875554354436e+005 -8.875554370483e+005 -8.875554367391e+005 -8.875554368968e+005 -8.875554374887e+005 -8.938583262582e+005 -8.938583296781e+005 -8.938583287524e+005 -8.938583287840e+005 -8.938583317658e+005 -8.938583298244e+005 -8.938583311835e+005 -8.938583312123e+005 -8.938583315045e+005 -8.999366958740e+005 -8.999366974175e+005 -8.999366978524e+005 -8.999366968062e+005 -8.999366981611e+005 -8.999366985992e+005 -8.999366997423e+005 -8.999366982905e+005 -8.999366985259e+005 -9.058005749896e+005 -9.058005738579e+005 -9.058005740510e+005 -9.058005753553e+005 -9.058005739850e+005 -9.058005748085e+005 -9.058005749132e+005 -9.058005744687e+005 -9.058005740375e+005 -9.114599145852e+005 -9.114599157442e+005 -9.114599141534e+005 -9.114599147613e+005 -9.114599145806e+005 -9.114599153424e+005 -9.114599154238e+005 -9.114599143414e+005 -9.114599155722e+005 -9.169246000045e+005 -9.169245970783e+005 -9.169245964103e+005 -9.169245978843e+005 -9.169245970043e+005 -9.169245962508e+005 -9.169245968657e+005 -9.169245963290e+005 -9.169245977122e+005 -9.222044290898e+005 -9.222044260661e+005 -9.222044245889e+005 -9.222044259405e+005 -9.222044260782e+005 -9.222044263924e+005 -9.222044262153e+005 -9.222044266940e+005 -9.222044246164e+005 -9.273091369502e+005 -9.273091358985e+005 -9.273091345791e+005 -9.273091354400e+005 -9.273091360202e+005 -9.273091358468e+005 -9.273091360183e+005 -9.273091347728e+005 -9.273091347621e+005 -9.322483932208e+005 -9.322483912927e+005 -9.322483901060e+005 -9.322483904517e+005 -9.322483899779e+005 -9.322483884961e+005 -9.322483902597e+005 -9.322483896952e+005 -9.322483891654e+005 -9.370317938983e+005 -9.370317910347e+005 -9.370317903476e+005 -9.370317885071e+005 -9.370317886023e+005 -9.370317883367e+005 -9.370317886009e+005 -9.370317872782e+005 -9.370317865566e+005 -9.416688725346e+005 -9.416688716003e+005 -9.416688705672e+005 -9.416688691980e+005 -9.416688685983e+005 -9.416688677142e+005 -9.416688678215e+005 -9.416688664291e+005 -9.416688669519e+005 -9.461691100604e+005 -9.461691099095e+005 -9.461691077398e+005 -9.461691090356e+005 -9.461691067341e+005 -9.461691063025e+005 -9.461691060227e+005 -9.461691048809e+005 -9.461691037864e+005 -9.505419274274e+005 -9.505419264363e+005 -9.505419273708e+005 -9.505419250939e+005 -9.505419247692e+005 -9.505419236166e+005 -9.505419233891e+005 -9.505419231948e+005 -9.505419221212e+005 -9.547966912322e+005 -9.547966928103e+005 -9.547966921733e+005 -9.547966919938e+005 -9.547966905621e+005 -9.547966901322e+005 -9.547966892761e+005 -9.547966878813e+005 -9.547966872065e+005 -9.589427247321e+005 -9.589427266118e+005 -9.589427273424e+005 -9.589427258775e+005 -9.589427242672e+005 -9.589427243699e+005 -9.589427227984e+005 -9.589427214488e+005 -9.589427212920e+005 -9.629892995914e+005 -9.629893019280e+005 -9.629893017815e+005 -9.629893017475e+005 -9.629893007758e+005 -9.629892990014e+005 -9.629892978113e+005 -9.629892975161e+005 -9.629892968401e+005 -9.669456514748e+005 -9.669456495330e+005 -9.669456503952e+005 -9.669456503297e+005 -9.669456500150e+005 -9.669456474550e+005 -9.669456464319e+005 -9.669456472309e+005 -9.669456469006e+005 -9.708209673663e+005 -9.708209668000e+005 -9.708209665633e+005 -9.708209664669e+005 -9.708209654980e+005 -9.708209632615e+005 -9.708209639066e+005 -9.708209632752e+005 -9.708209636063e+005 -9.746244103318e+005 -9.746244095543e+005 -9.746244095060e+005 -9.746244080766e+005 -9.746244079249e+005 -9.746244068806e+005 -9.746244066025e+005 -9.746244060123e+005 -9.746244067208e+005 -9.783651072027e+005 -9.783651063019e+005 -9.783651066726e+005 -9.783651063052e+005 -9.783651051703e+005 -9.783651050512e+005 -9.783651044311e+005 -9.783651043613e+005 -9.783651031680e+005 -9.820521594212e+005 -9.820521600920e+005 -9.820521608674e+005 -9.820521604068e+005 -9.820521596707e+005 -9.820521599711e+005 -9.820521593217e+005 -9.820521593559e+005 -9.820521590826e+005 -9.856946497080e+005 -9.856946504788e+005 -9.856946510222e+005 -9.856946504375e+005 -9.856946503920e+005 -9.856946506141e+005 -9.856946497984e+005 -9.856946503297e+005 -9.856946503997e+005 -9.893016381003e+005 -9.893016382142e+005 -9.893016385578e+005 -9.893016386833e+005 -9.893016375403e+005 -9.893016373799e+005 -9.893016376843e+005 -9.893016379500e+005 -9.893016377926e+005 -9.928821683233e+005 -9.928821691456e+005 -9.928821697775e+005 -9.928821697048e+005 -9.928821694002e+005 -9.928821687218e+005 -9.928821687217e+005 -9.928821688919e+005 -9.928821690041e+005 -9.964452796777e+005 -9.964452801096e+005 -9.964452803615e+005 -9.964452802114e+005 -9.964452803046e+005 -9.964452798454e+005 -9.964452798451e+005 -9.964452800090e+005 -9.964452798511e+005 -1.000000000000e+006 -1.000000000000e+006 -1.000000000000e+006 -1.000000000000e+006 -1.000000000000e+006 -1.000000000000e+006 -1.000000000000e+006 -1.000000000000e+006 -1.000000000000e+006 
        </DataArray>
        <DataArray type="Float64" Name="NONWET_PRESSURE" format="ascii">