<?xml version="1.0"?>
<VTKFile type="UnstructuredGrid" version="0.1" byte_order="LittleEndian">
  <UnstructuredGrid>
    <Piece NumberOfPoints="909" NumberOfCells="800">
      <Points>
        <DataArray type="Float64" NumberOfComponents="3" format="ascii">
          0.000000000000e+000 0.000000000000e+000 0.000000000000e+000
          2.000000000000e+000 0.000000000000e+000 0.000000000000e+000
          2.000000000000e+000 2.500000000000e+000 0.000000000000e+000
          0.000000000000e+000 2.500000000000e+000 0.000000000000e+000
          2.000000000000e+000 5.000000000000e+000 0.000000000000e+000
          0.000000000000e+000 5.000000000000e+000 0.000000000000e+000
          2.000000000000e+000 7.500000000000e+000 0.000000000000e+000
          0.000000000000e+000 7.500000000000e+000 0.000000000000e+000
          2.000000000000e+000 1.000000000000e+001 0.000000000000e+000
          0.000000000000e+000 1.000000000000e+001 0.000000000000e+000
          2.000000000000e+000 1.250000000000e+001 0.000000000000e+000
          0.000000000000e+000 1.250000000000e+001 0.000000000000e+000
          2.000000000000e+000 1.500000000000e+001 0.000000000000e+000
          0.000000000000e+000 1.500000000000e+001 0.000000000000e+000
          2.000000000000e+000 1.750000000000e+001 0.000000000000e+000
          0.000000000000e+000 1.750000000000e+001 0.000000000000e+000
          2.000000000000e+000 2.000000000000e+001 0.000000000000e+000
          0.000000000000e+000 2.000000000000e+001 0.000000000000e+000
          4.000000000000e+000 0.000000000000e+000 0.000000000000e+000
          4.000000000000e+000 2.500000000000e+000 0.000000000000e+000
          4.000000000000e+000 5.000000000000e+000 0.000000000000e+000
          4.000000000000e+000 7.500000000000e+000 0.000000000000e+000
          4.000000000000e+000 1.000000000000e+001 0.000000000000e+000
          4.000000000000e+000 1.250000000000e+001 0.000000000000e+000
          4.000000000000e+000 1.500000000000e+001 0.000000000000e+000
          4.000000000000e+000 1.750000000000e+001 0.000000000000e+000
          4.000000000000e+000 2.000000000000e+001 0.000000000000e+000
          6.000000000000e+000 0.000000000000e+000 0.000000000000e+000
          6.000000000000e+000 2.500000000000e+000 0.000000000000e+000
          6.000000000000e+000 5.000000000000e+000 0.000000000000e+000
          6.000000000000e+000 7.500000000000e+000 0.000000000000e+000
          6.000000000000e+000 1.000000000000e+001 0.000000000000e+000
          6.000000000000e+000 1.250000000000e+001 0.000000000000e+000
          6.000000000000e+000 1.500000000000e+001 0.000000000000e+000
          6.000000000000e+000 1.750000000000e+001 0.000000000000e+000
          6.000000000000e+000 2.000000000000e+001 0.000000000000e+000
          8.000000000000e+000 0.000000000000e+000 0.000000000000e+000
          8.000000000000e+000 2.500000000000e+000 0.000000000000e+000
          8.000000000000e+000 5.000000000000e+000 0.000000000000e+000
          8.000000000000e+000 7.500000000000e+000 0.000000000000e+000
          8.000000000000e+000 1.000000000000e+001 0.000000000000e+000
          8.000000000000e+000 1.250000000000e+001 0.000000000000e+000
          8.000000000000e+000 1.500000000000e+001 0.000000000000e+000
          8.000000000000e+000 1.750000000000e+001 0.000000000000e+000
          8.000000000000e+000 2.000000000000e+001 0.000000000000e+000
          1.000000000000e+001 0.000000000000e+000 0.000000000000e+000
          1.000000000000e+001 2.500000000000e+000 0.000000000000e+000
          1.000000000000e+001 5.000000000000e+000 0.000000000000e+000
          1.000000000000e+001 7.500000000000e+000 0.000000000000e+000
          1.000000000000e+001 1.000000000000e+001 0.000000000000e+000
          1.000000000000e+001 1.250000000000e+001 0.000000000000e+000
          1.000000000000e+001 1.500000000000e+001 0.000000000000e+000
          1.000000000000e+001 1.750000000000e+001 0.000000000000e+000
          1.000000000000e+001 2.000000000000e+001 0.000000000000e+000
          1.200000000000e+001 0.000000000000e+000 0.000000000000e+000
          1.200000000000e+001 2.500000000000e+000 0.000000000000e+000
          1.200000000000e+001 5.000000000000e+000 0.000000000000e+000
          1.200000000000e+001 7.500000000000e+000 0.000000000000e+000
          1.200000000000e+001 1.000000000000e+001 0.000000000000e+000
          1.200000000000e+001 1.250000000000e+001 0.000000000000e+000
          1.200000000000e+001 1.500000000000e+001 0.000000000000e+000
          1.200000000000e+001 1.750000000000e+001 0.000000000000e+000
          1.200000000000e+001 2.000000000000e+001 0.000000000000e+000
          1.400000000000e+001 0.000000000000e+000 0.000000000000e+000
          1.400000000000e+001 2.500000000000e+000 0.000000000000e+000
          1.400000000000e+001 5.000000000000e+000 0.000000000000e+000
          1.400000000000e+001 7.500000000000e+000 0.000000000000e+000
          1.400000000000e+001 1.000000000000e+001 0.000000000000e+000
          1.400000000000e+001 1.250000000000e+001 0.000000000000e+000
          1.400000000000e+001 1.500000000000e+001 0.000000000000e+000
          1.400000000000e+001 1.750000000000e+001 0.000000000000e+000
          1.400000000000e+001 2.000000000000e+001 0.000000000000e+000
          1.600000000000e+001 0.000000000000e+000 0.000000000000e+000
          1.600000000000e+001 2.500000000000e+000 0.000000000000e+000
          1.600000000000e+001 5.000000000000e+000 0.000000000000e+000
          1.600000000000e+001 7.500000000000e+000 0.000000000000e+000
          1.600000000000e+001 1.000000000000e+001 0.000000000000e+000
          1.600000000000e+001 1.250000000000e+001 0.000000000000e+000
          1.600000000000e+001 1.500000000000e+001 0.000000000000e+000
          1.600000000000e+001 1.750000000000e+001 0.000000000000e+000
          1.600000000000e+001 2.000000000000e+001 0.000000000000e+000
          1.800000000000e+001 0.000000000000e+000 0.000000000000e+000
          1.800000000000e+001 2.500000000000e+000 0.000000000000e+000
          1.800000000000e+001 5.000000000000e+000 0.000000000000e+000
          1.800000000000e+001 7.500000000000e+000 0.000000000000e+000
          1.800000000000e+001 1.000000000000e+001 0.000000000000e+000
          1.800000000000e+001 1.250000000000e+001 0.000000000000e+000
          1.800000000000e+001 1.500000000000e+001 0.000000000000e+000
          1.800000000000e+001 1.750000000000e+001 0.000000000000e+000
          1.800000000000e+001 2.000000000000e+001 0.000000000000e+000
          2.000000000000e+001 0.000000000000e+000 0.000000000000e+000
          2.000000000000e+001 2.500000000000e+000 0.000000000000e+000
          2.000000000000e+001 5.000000000000e+000 0.000000000000e+000
          2.000000000000e+001 7.500000000000e+000 0.000000000000e+000
          2.000000000000e+001 1.000000000000e+001 0.000000000000e+000
          2.000000000000e+001 1.250000000000e+001 0.000000000000e+000
          2.000000000000e+001 1.500000000000e+001 0.000000000000e+000
          2.000000000000e+001 1.750000000000e+001 0.000000000000e+000
          2.000000000000e+001 2.000000000000e+001 0.000000000000e+000
          2.200000000000e+001 0.000000000000e+000 0.000000000000e+000
          2.200000000000e+001 2.500000000000e+000 0.000000000000e+000
          2.200000000000e+001 5.000000000000e+000 0.000000000000e+000
          2.200000000000e+001 7.500000000000e+000 0.000000000000e+000
          2.200000000000e+001 1.000000000000e+001 0.000000000000e+000
          2.200000000000e+001 1.250000000000e+001 0.000000000000e+000
          2.200000000000e+001 1.500000000000e+001 0.000000000000e+000
          2.200000000000e+001 1.750000000000e+001 0.000000000000e+000
          2.200000000000e+001 2.000000000000e+001 0.000000000000e+000
          2.400000000000e+001 0.000000000000e+000 0.000000000000e+000
          2.400000000000e+001 2.500000000000e+000 0.000000000000e+000
          2.400000000000e+001 5.000000000000e+000 0.000000000000e+000
          2.400000000000e+001 7.500000000000e+000 0.000000000000e+000
          2.400000000000e+001 1.000000000000e+001 0.000000000000e+000
          2.400000000000e+001 1.250000000000e+001 0.000000000000e+000
          2.400000000000e+001 1.500000000000e+001 0.000000000000e+000
          2.400000000000e+001 1.750000000000e+001 0.000000000000e+000
          2.400000000000e+001 2.000000000000e+001 0.000000000000e+000
          2.600000000000e+001 0.000000000000e+000 0.000000000000e+000
          2.600000000000e+001 2.500000000000e+000 0.000000000000e+000
          2.600000000000e+001 5.000000000000e+000 0.000000000000e+000
          2.600000000000e+001 7.500000000000e+000 0.000000000000e+000
          2.600000000000e+001 1.000000000000e+001 0.000000000000e+000
          2.600000000000e+001 1.250000000000e+001 0.000000000000e+000
          2.600000000000e+001 1.500000000000e+001 0.000000000000e+000
          2.600000000000e+001 1.750000000000e+001 0.000000000000e+000
          2.600000000000e+001 2.000000000000e+001 0.000000000000e+000
          2.800000000000e+001 0.000000000000e+000 0.000000000000e+000
          2.800000000000e+001 2.500000000000e+000 0.000000000000e+000
          2.800000000000e+001 5.000000000000e+000 0.000000000000e+000
          2.800000000000e+001 7.500000000000e+000 0.000000000000e+000
          2.800000000000e+001 1.000000000000e+001 0.000000000000e+000
          2.800000000000e+001 1.250000000000e+001 0.000000000000e+000
          2.800000000000e+001 1.500000000000e+001 0.000000000000e+000
          2.800000000000e+001 1.750000000000e+001 0.000000000000e+000
          2.800000000000e+001 2.000000000000e+001 0.000000000000e+000
          3.000000000000e+001 0.000000000000e+000 0.000000000000e+000
          3.000000000000e+001 2.500000000000e+000 0.000000000000e+000
          3.000000000000e+001 5.000000000000e+000 0.000000000000e+000
          3.000000000000e+001 7.500000000000e+000 0.000000000000e+000
[...]
      <PointData Scalars="CAPILLARY_PRESSURE">
        <DataArray type="Float64" Name="CAPILLARY_PRESSURE" format="ascii">
          3.184763794350e+005 3.161294264643e+005 3.161294264643e+005 3.184763794350e+005 3.161294264643e+005 3.184763794350e+005 3.161294264643e+005 3.184763794350e+005 3.161294264643e+005 3.184763794350e+005 3.161294264643e+005 3.184763794350e+005 3.161294264643e+005 3.184763794350e+005 3.161294264643e+005 3.184763794350e+005 3.161294264643e+005 3.184763794350e+005 3.137900801916e+005 3.137900801916e+005 3.137900801916e+005 3.137900801916e+005 3.137900801916e+005 3.137900801916e+005 3.137900801916e+005 3.137900801916e+005 3.137900801916e+005 3.114578923096e+005 3.114578923096e+005 3.114578923096e+005 3.114578923096e+005 3.114578923096e+005 3.114578923096e+005 3.114578923096e+005 3.114578923096e+005 3.114578923096e+005 3.091323878057e+005 3.091323878057e+005 3.091323878057e+005 3.091323878057e+005 3.091323878057e+005 3.091323878057e+005 3.091323878057e+005 3.091323878057e+005 3.091323878057e+005 3.068130812120e+005 3.068130812120e+005 3.068130812120e+005 3.068130812120e+005 3.068130812120e+005 3.068130812120e+005 3.068130812120e+005 3.068130812120e+005 3.068130812120e+005 3.044994647879e+005 3.044994647879e+005 3.044994647879e+005 3.044994647879e+005 3.044994647879e+005 3.044994647879e+005 3.044994647879e+005 3.044994647879e+005 3.044994647879e+005 3.021910097632e+005 3.021910097632e+005 3.021910097632e+005 3.021910097632e+005 3.021910097632e+005 3.021910097632e+005 3.021910097632e+005 3.021910097632e+005 3.021910097632e+005 2.998871644643e+005 2.998871644643e+005 2.998871644643e+005 2.998871644643e+005 2.998871644643e+005 2.998871644643e+005 2.998871644643e+005 2.998871644643e+005 2.998871644643e+005 2.975873538767e+005 2.975873538767e+005 2.975873538767e+005 2.975873538767e+005 2.975873538767e+005 2.975873538767e+005 2.975873538767e+005 2.975873538767e+005 2.975873538767e+005 2.952909782008e+005 2.952909782008e+005 2.952909782008e+005 2.952909782008e+005 2.952909782008e+005 2.952909782008e+005 2.952909782008e+005 2.952909782008e+005 2.952909782008e+005 2.929974115621e+005 2.929974115621e+005 2.929974115621e+005 2.929974115621e+005 2.929974115621e+005 2.929974115621e+005 2.929974115621e+005 2.929974115621e+005 2.929974115621e+005 2.907060005658e+005 2.907060005658e+005 2.907060005658e+005 2.907060005658e+005 2.907060005658e+005 2.907060005658e+005 2.907060005658e+005 2.907060005658e+005 2.907060005658e+005 2.884160627062e+005 2.884160627062e+005 2.884160627062e+005 2.884160627062e+005 2.884160627062e+005 2.884160627062e+005 2.884160627062e+005 2.884160627062e+005 2.884160627062e+005 2.861268846321e+005 2.861268846321e+005 2.861268846321e+005 2.861268846321e+005 2.861268846321e+005 2.861268846321e+005 2.861268846321e+005 2.861268846321e+005 2.861268846321e+005 2.838377202572e+005 2.838377202572e+005 2.838377202572e+005 2.838377202572e+005 2.838377202572e+005 2.838377202572e+005 2.838377202572e+005 2.838377202572e+005 2.838377202572e+005 2.815477887046e+005 2.815477887046e+005 2.815477887046e+005 2.815477887046e+005 2.815477887046e+005 2.815477887046e+005 2.815477887046e+005 2.815477887046e+005 2.815477887046e+005 2.792562720657e+005 2.792562720657e+005 2.792562720657e+005 2.792562720657e+005 2.792562720657e+005 2.792562720657e+005 2.792562720657e+005 2.792562720657e+005 2.792562720657e+005 2.769623129563e+005 2.769623129563e+005 2.769623129563e+005 2.769623129563e+005 2.769623129563e+005 2.769623129563e+005 2.769623129563e+005 2.769623129563e+005 2.769623129563e+005 2.746650118459e+005 2.746650118459e+005 2.746650118459e+005 2.746650118459e+005 2.746650118459e+005 2.746650118459e+005 2.746650118459e+005 2.746650118459e+005 2.746650118459e+005 2.723634241374e+005 2.723634241374e+005 2.723634241374e+005 2.723634241374e+005 2.723634241374e+005 2.723634241374e+005 2.723634241374e+005 2.723634241374e+005 2.723634241374e+005 2.700565569697e+005 2.700565569697e+005 2.700565569697e+005 2.700565569697e+005 2.700565569697e+005 2.700565569697e+005 2.700565569697e+005 2.700565569697e+005 2.700565569697e+005 2.677433657128e+005 2.677433657128e+005 2.677433657128e+005 2.677433657128e+005 2.677433657128e+005 2.677433657128e+005 2.677433657128e+005 2.677433657128e+005 2.677433657128e+005 2.654227501216e+005 2.654227501216e+005 2.654227501216e+005 2.654227501216e+005 2.654227501216e+005 2.654227501216e+005 2.654227501216e+005 2.654227501216e+005 2.654227501216e+005 2.630935501083e+005 2.630935501083e+005 2.630935501083e+005 2.630935501082e+005 2.630935501083e+005 2.630935501083e+005 2.630935501083e+005 2.630935501083e+005 2.630935501083e+005 2.607545410886e+005 2.607545410886e+005 2.607545410886e+005 2.607545410886e+005 2.607545410886e+005 2.607545410886e+005 2.607545410886e+005 2.607545410886e+005 2.607545410886e+005 2.584044288516e+005 2.584044288516e+005 2.584044288516e+005 2.584044288516e+005 2.584044288516e+005 2.584044288516e+005 2.584044288516e+005 2.584044288516e+005 2.584044288516e+005 2.560418438921e+005 2.560418438921e+005 2.560418438921e+005 2.560418438921e+005 2.560418438921e+005 2.560418438921e+005 2.560418438921e+005 2.560418438921e+005 2.560418438921e+005 2.536653351393e+005 2.536653351393e+005 2.536653351393e+005 2.536653351393e+005 2.536653351393e+005 2.536653351393e+005 2.536653351393e+005 2.536653351393e+005 2.536653351393e+005 2.512733630032e+005 2.512733630032e+005 2.512733630032e+005 2.512733630032e+005 2.512733630032e+005 2.512733630032e+005 2.512733630032e+005 2.512733630032e+005 2.512733630032e+005 2.488642916470e+005 2.488642916470e+005 2.488642916470e+005 2.488642916470e+005 2.488642916470e+005 2.488642916470e+005 2.488642916470e+005 2.488642916470e+005 2.488642916470e+005 2.464363803809e+005 2.464363803809e+005 2.464363803809e+005 2.464363803809e+005 2.464363803809e+005 2.464363803809e+005 2.464363803809e+005 2.464363803809e+005 2.464363803809e+005 2.439877740541e+005 2.439877740541e+005 2.439877740541e+005 2.439877740541e+005 2.439877740541e+005 2.439877740541e+005 2.439877740541e+005 2.439877740541e+005 2.439877740541e+005 2.415164923014e+005 2.415164923014e+005 2.415164923014e+005 2.415164923014e+005 2.415164923014e+005 2.415164923014e+005 2.415164923014e+005 2.415164923014e+005 2.415164923014e+005 2.390204174747e+005 2.390204174747e+005 2.390204174747e+005 2.390204174747e+005 2.390204174747e+005 2.390204174747e+005 2.390204174747e+005 2.390204174747e+005 2.390204174747e+005 2.364972810607e+005 2.364972810607e+005 2.364972810607e+005 2.364972810607e+005 2.364972810607e+005 2.364972810607e+005 2.364972810607e+005 2.364972810607e+005 2.364972810607e+005 2.339446483498e+005 2.339446483498e+005 2.339446483498e+005 2.339446483498e+005 2.339446483498e+005 2.339446483498e+005 2.339446483498e+005 2.339446483498e+005 2.339446483498e+005 2.313599010747e+005 2.313599010747e+005 2.313599010747e+005 2.313599010747e+005 2.313599010747e+005 2.313599010747e+005 2.313599010747e+005 2.313599010747e+005 2.313599010747e+005 2.287402176847e+005 2.287402176847e+005 2.287402176847e+005 2.287402176847e+005 2.287402176847e+005 2.287402176847e+005 2.287402176847e+005 2.287402176847e+005 2.287402176847e+005 2.260825508547e+005 2.260825508547e+005 2.260825508547e+005 2.260825508547e+005 2.260825508547e+005 2.260825508547e+005 2.260825508547e+005 2.260825508547e+005 2.260825508547e+005 2.233836017447e+005 2.233836017447e+005 2.233836017447e+005 2.233836017447e+005 2.233836017447e+005 2.233836017447e+005 2.233836017447e+005 2.233836017447e+005 2.233836017447e+005 2.206397904234e+005 2.206397904234e+005 2.206397904234e+005 2.206397904234e+005 2.206397904234e+005 2.206397904234e+005 2.206397904234e+005 2.206397904234e+005 2.206397904234e+005 2.178472217418e+005 2.178472217418e+005 2.178472217418e+005 2.178472217418e+005 2.178472217418e+005 2.178472217418e+005 2.178472217418e+005 2.178472217418e+005 2.178472217418e+005 2.150016457802e+005 2.150016457802e+005 2.150016457802e+005 2.150016457802e+005 2.150016457802e+005 2.150016457802e+005 2.150016457802e+005 2.150016457802e+005 2.150016457802e+005 2.120984117882e+005 2.120984117882e+005 2.120984117882e+005 2.120984117882e+005 2.120984117882e+005 2.120984117882e+005 2.120984117882e+005 2.120984117882e+005 2.120984117882e+005 2.091324142754e+005 2.091324142754e+005 2.091324142754e+005 2.091324142754e+005 2.091324142754e+005 2.091324142754e+005 2.091324142754e+005 2.091324142754e+005 2.091324142754e+005 2.060980295716e+005 2.060980295716e+005 2.060980295716e+005 2.060980295716e+005 2.060980295716e+005 2.060980295716e+005 2.060980295716e+005 2.060980295716e+005 2.060980295716e+005 2.029890407400e+005 2.029890407400e+005 2.029890407400e+005 2.029890407400e+005 2.029890407400e+005 2.029890407400e+005 2.029890407400e+005 2.029890407400e+005 2.029890407400e+005 1.997985481471e+005 1.997985481471e+005 1.997985481471e+005 1.997985481471e+005 1.997985481471e+005 1.997985481471e+005 1.997985481471e+005 1.997985481471e+005 1.997985481471e+005 1.965188622318e+005 1.965188622318e+005 1.965188622318e+005 1.965188622318e+005 1.965188622318e+005 1.965188622318e+005 1.965188622318e+005 1.965188622318e+005 1.965188622318e+005 1.931413739929e+005 1.931413739929e+005 1.931413739929e+005 1.931413739929e+005 1.931413739929e+005 1.931413739929e+005 1.931413739929e+005 1.931413739929e+005 1.931413739929e+005 1.896563973231e+005 1.896563973231e+005 1.896563973231e+005 1.896563973231e+005 1.896563973231e+005 1.896563973231e+005 1.896563973231e+005 1.896563973231e+005 1.896563973231e+005 1.860529754150e+005 1.860529754150e+005 1.860529754150e+005 1.860529754150e+005 1.860529754150e+005 1.860529754150e+005 1.860529754150e+005 1.860529754150e+005 1.860529754150e+005 1.823186408081e+005 1.823186408081e+005 1.823186408081e+005 1.823186408081e+005 1.823186408081e+005 1.823186408081e+005 1.823186408081e+005 1.823186408081e+005 1.823186408081e+005 1.784391149028e+005 1.784391149028e+005 1.784391149028e+005 1.784391149028e+005 1.784391149028e+005 1.784391149028e+005 1.784391149028e+005 1.784391149028e+005 1.784391149028e+005 1.743979273700e+005 1.743979273700e+005 1.743979273700e+005 1.743979273700e+005 1.743979273700e+005 1.743979273700e+005 1.743979273700e+005 1.743979273700e+005 1.743979273700e+005 1.701759280106e+005 1.701759280106e+005 1.701759280106e+005 1.701759280105e+005 1.701759280105e+005 1.701759280105e+005 1.701759280105e+005 1.701759280105e+005 1.701759280105e+005 1.657506519879e+005 1.657506519879e+005 1.657506519879e+005 1.657506519879e+005 1.657506519879e+005 1.657506519879e+005 1.657506519878e+005 1.657506519878e+005 1.657506519878e+005 1.610954818377e+005 1.610954818377e+005 1.610954818377e+005 1.610954818377e+005 1.610954818377e+005 1.610954818377e+005 1.610954818377e+005 1.610954818377e+005 1.610954818377e+005 1.561785202888e+005 1.561785202888e+005 1.561785202888e+005 1.561785202888e+005 1.561785202888e+005 1.561785202887e+005 1.561785202887e+005 1.561785202887e+005 1.561785202887e+005 1.509610420145e+005 1.509610420146e+005 1.509610420146e+005 1.509610420146e+005 1.509610420145e+005 1.509610420145e+005 1.509610420145e+005 1.509610420145e+005 1.509610420144e+005 1.453953453787e+005 1.453953453785e+005 1.453953453784e+005 1.453953453781e+005 1.453953453780e+005 1.453953453781e+005 1.453953453783e+005 1.453953453782e+005 1.453953453783e+005 1.394215886964e+005 1.394215886974e+005 1.394215886977e+005 1.394215886985e+005 1.394215886989e+005 1.394215886984e+005 1.394215886973e+005 1.394215886975e+005 1.394215886971e+005 1.329632820331e+005 1.329632820296e+005 1.329632820287e+005 1.329632820262e+005 1.329632820247e+005 1.329632820261e+005 1.329632820293e+005 1.329632820281e+005 1.329632820294e+005 1.259200363192e+005 1.259200363289e+005 1.259200363290e+005 1.259200363339e+005 1.259200363374e+005 1.259200363342e+005 1.259200363259e+005 1.259200363307e+005 1.259200363268e+005 1.181562887285e+005 1.181562887061e+005 1.181562887106e+005 1.181562887021e+005 1.181562886964e+005 1.181562886998e+005 1.181562887137e+005 1.181562886982e+005 1.181562887098e+005 1.094832926687e+005 1.094832927105e+005 1.094832926966e+005 1.094832927105e+005 1.094832927133e+005 1.094832927134e+005 1.094832926967e+005 1.094832927317e+005 1.094832927022e+005 9.962238648211e+004 9.962238642967e+004 9.962238645702e+004 9.962238643915e+004 9.962238645397e+004 9.962238644388e+004 9.962238644569e+004 9.962238638312e+004 9.962238643972e+004 8.814667941781e+004 8.814667944721e+004 8.814667942939e+004 8.814667945650e+004 8.814667942119e+004 8.814667943110e+004 8.814667945661e+004 8.814667953445e+004 8.814667945449e+004 7.433617559611e+004 7.433617561740e+004 7.433617558830e+004 7.433617555224e+004 7.433617555186e+004 7.433617560666e+004 7.433617561180e+004 7.433617551649e+004 7.433617559809e+004 5.686361683282e+004 5.686361677741e+004 5.686361673310e+004 5.686361669752e+004 5.686361680822e+004 5.686361669051e+004 5.686361659129e+004 5.686361690790e+004 5.686361677483e+004 3.306846765531e+004 3.306846875522e+004 3.306846870372e+004 3.306846914037e+004 3.306846897281e+004 3.306846928290e+004 3.306846910234e+004 3.306846894478e+004 3.306846860588e+004 -1.218894719314e+003 -1.218897001195e+003 -1.218898040753e+003 -1.218899214957e+003 -1.218897952914e+003 -1.218898721054e+003 -1.218900150648e+003 -1.218898614273e+003 -1.218897683837e+003 -3.973514907324e+004 -3.973514703720e+004 -3.973514978575e+004 -3.973515016770e+004 -3.973514905835e+004 -3.973515145528e+004 -3.973514995692e+004 -3.973515011509e+004 -3.973514955832e+004 -7.794693307865e+004 -7.794693176239e+004 -7.794693170551e+004 -7.794693160086e+004 -7.794693135208e+004 -7.794693323710e+004 -7.794693288001e+004 -7.794693336547e+004 -7.794693144431e+004 -1.158640705106e+005 -1.158640738672e+005 -1.158640743938e+005 -1.158640742730e+005 -1.158640737237e+005 -1.158640753710e+005 -1.158640750724e+005 -1.158640752240e+005 -1.158640758118e+005 -1.534979344239e+005 -1.534979378608e+005 -1.534979369800e+005 -1.534979370686e+005 -1.534979401019e+005 -1.534979381949e+005 -1.534979395701e+005 -1.534979396028e+005 -1.534979398952e+005 -1.908589729382e+005 -1.908589744922e+005 -1.908589749553e+005 -1.908589739461e+005 -1.908589753364e+005 -1.908589758011e+005 -1.908589769599e+005 -1.908589755151e+005 -1.908589757523e+005 -2.279573622279e+005 -2.279573611030e+005 -2.279573613143e+005 -2.279573626432e+005 -2.279573612978e+005 -2.279573621416e+005 -2.279573622599e+005 -2.279573618227e+005 -2.279573613936e+005 -2.648035103241e+005 -2.648035114876e+005 -2.648035099089e+005 -2.648035105336e+005 -2.648035103706e+005 -2.648035111476e+005 -2.648035112401e+005 -2.648035101642e+005 -2.648035113971e+005 -3.014080465039e+005 -3.014080435807e+005 -3.014080429210e+005 -3.014080444067e+005 -3.014080435393e+005 -3.014080427972e+005 -3.014080434208e+005 -3.014080428895e+005 -3.014080442744e+005 -3.377817185780e+005 -3.377817155563e+005 -3.377817140849e+005 -3.377817154447e+005 -3.377817155915e+005 -3.377817159142e+005 -3.377817157437e+005 -3.377817162266e+005 -3.377817141505e+005 -3.739353864000e+005 -3.739353853497e+005 -3.739353840344e+005 -3.739353849011e+005 -3.739353854878e+005 -3.739353853208e+005 -3.739353854973e+005 -3.739353842549e+005 -3.739353842453e+005 -4.098800138237e+005 -4.098800118967e+005 -4.098800107128e+005 -4.098800110626e+005 -4.098800105936e+005 -4.098800091163e+005 -4.098800108837e+005 -4.098800103217e+005 -4.098800097927e+005 -4.456266609965e+005 -4.456266581336e+005 -4.456266574486e+005 -4.456266556110e+005 -4.456266557097e+005 -4.456266554474e+005 -4.456266557144e+005 -4.456266543935e+005 -4.456266536726e+005 -4.811864934404e+005 -4.811864925066e+005 -4.811864914750e+005 -4.811864901079e+005 -4.811864895107e+005 -4.811864886290e+005 -4.811864887384e+005 -4.811864873474e+005 -4.811864878706e+005 -5.165707852135e+005 -5.165707850630e+005 -5.165707828943e+005 -5.165707841916e+005 -5.165707818920e+005 -5.165707814622e+005 -5.165707811839e+005 -5.165707800430e+005 -5.165707789489e+005 -5.517909012118e+005 -5.517909002210e+005 -5.517909011563e+005 -5.517908988805e+005 -5.517908985572e+005 -5.517908974058e+005 -5.517908971794e+005 -5.517908969859e+005 -5.517908959125e+005 -5.868582902844e+005 -5.868582918627e+005 -5.868582912263e+005 -5.868582910475e+005 -5.868582896168e+005 -5.868582891878e+005 -5.868582883325e+005 -5.868582869382e+005 -5.868582862636e+005 -6.217844828920e+005 -6.217844847718e+005 -6.217844855029e+005 -6.217844840385e+005 -6.217844824289e+005 -6.217844825323e+005 -6.217844809614e+005 -6.217844796122e+005 -6.217844794554e+005 -6.565810695185e+005 -6.565810718552e+005 -6.565810717090e+005 -6.565810716754e+005 -6.565810707042e+005 -6.565810689303e+005 -6.565810677407e+005 -6.565810674457e+005 -6.565810667699e+005 -6.912597034253e+005 -6.912597014836e+005 -6.912597023460e+005 -6.912597022809e+005 -6.912597019665e+005 -6.912596994069e+005 -6.912596983841e+005 -6.912596991833e+005 -6.912596988531e+005 -7.258320758261e+005 -7.258320752598e+005 -7.258320750232e+005 -7.258320749271e+005 -7.258320739585e+005 -7.258320717222e+005 -7.258320723675e+005 -7.258320717363e+005 -7.258320720674e+005 -7.603099292249e+005 -7.603099284474e+005 -7.603099283992e+005 -7.603099269700e+005 -7.603099268184e+005 -7.603099257743e+005 -7.603099254964e+005 -7.603099249063e+005 -7.603099256148e+005 -7.947050343250e+005 -7.947050334242e+005 -7.947050337949e+005 -7.947050334277e+005 -7.947050322929e+005 -7.947050321740e+005 -7.947050315540e+005 -7.947050314843e+005 -7.947050302909e+005 -8.290291906324e+005 -8.290291913032e+005 -8.290291920786e+005 -8.290291916181e+005 -8.290291908821e+005 -8.290291911826e+005 -8.290291905333e+005 -8.290291905675e+005 -8.290291902943e+005 -8.632942232906e+005 -8.632942240613e+005 -8.632942246048e+005 -8.632942240201e+005 -8.632942239747e+005 -8.632942241969e+005 -8.632942233812e+005 -8.632942239126e+005 -8.632942239826e+005 -8.975119696053e+005 -8.975119697192e+005 -8.975119700628e+005 -8.975119701884e+005 -8.975119690454e+005 -8.975119688851e+005 -8.975119691895e+005 -8.975119694552e+005 -8.975119692978e+005 -9.316942761379e+005 -9.316942769602e+005 -9.316942775921e+005 -9.316942775195e+005 -9.316942772149e+005 -9.316942765366e+005 -9.316942765365e+005 -9.316942767067e+005 -9.316942768189e+005 -9.658530012797e+005 -9.658530017116e+005 -9.658530019634e+005 -9.658530018133e+005 -9.658530019065e+005 -9.658530014474e+005 -9.658530014471e+005 -9.658530016110e+005 -9.658530014531e+005 -1.000000000000e+006 -1.000000000000e+006 -1.000000000000e+006 -1.000000000000e+006 -1.000000000000e+006 -1.000000000000e+006 -1.000000000000e+006 -1.000000000000e+006 -1.000000000000e+006 
        </DataArray>
        <DataArray type="Float64" Name="NONWET_PRESSURE" format="ascii">