<?xml version="1.0"?>
<VTKFile type="UnstructuredGrid" version="0.1" byte_order="LittleEndian">
  <UnstructuredGrid>
    <Piece NumberOfPoints="909" NumberOfCells="800">
      <Points>
        <DataArray type="Float64" NumberOfComponents="3" format="ascii">
          0.000000000000e+000 0.000000000000e+000 0.000000000000e+000
          2.000000000000e+000 0.000000000000e+000 0.000000000000e+000
          2.000000000000e+000 2.500000000000e+000 0.000000000000e+000
          0.000000000000e+000 2.500000000000e+000 0.000000000000e+000
          2.000000000000e+000 5.000000000000e+000 0.000000000000e+000
          0.000000000000e+000 5.000000000000e+000 0.000000000000e+000
          2.000000000000e+000 7.500000000000e+000 0.000000000000e+000
          0.000000000000e+000 7.500000000000e+000 0.000000000000e+000
          2.000000000000e+000 1.000000000000e+001 0.000000000000e+000
          0.000000000000e+000 1.000000000000e+001 0.000000000000e+000
          2.000000000000e+000 1.250000000000e+001 0.000000000000e+000
          0.000000000000e+000 1.250000000000e+001 0.000000000000e+000
          2.000000000000e+000 1.500000000000e+001 0.000000000000e+000
          0.000000000000e+000 1.500000000000e+001 0.000000000000e+000
          2.000000000000e+000 1.750000000000e+001 0.000000000000e+000
          0.000000000000e+000 1.750000000000e+001 0.000000000000e+000
          2.000000000000e+000 2.000000000000e+001 0.000000000000e+000
          0.000000000000e+000 2.000000000000e+001 0.000000000000e+000
          4.000000000000e+000 0.000000000000e+000 0.000000000000e+000
          4.000000000000e+000 2.500000000000e+000 0.000000000000e+000
          4.000000000000e+000 5.000000000000e+000 0.000000000000e+000
          4.000000000000e+000 7.500000000000e+000 0.000000000000e+000
          4.000000000000e+000 1.000000000000e+001 0.000000000000e+000
          4.000000000000e+000 1.250000000000e+001 0.000000000000e+000
          4.000000000000e+000 1.500000000000e+001 0.000000000000e+000
          4.000000000000e+000 1.750000000000e+001 0.000000000000e+000
          4.000000000000e+000 2.000000000000e+001 0.000000000000e+000
          6.000000000000e+000 0.000000000000e+000 0.000000000000e+000
          6.000000000000e+000 2.500000000000e+000 0.000000000000e+000
          6.000000000000e+000 5.000000000000e+000 0.000000000000e+000
          6.000000000000e+000 7.500000000000e+000 0.000000000000e+000
          6.000000000000e+000 1.000000000000e+001 0.000000000000e+000
          6.000000000000e+000 1.250000000000e+001 0.000000000000e+000
          6.000000000000e+000 1.500000000000e+001 0.000000000000e+000
          6.000000000000e+000 1.750000000000e+001 0.000000000000e+000
          6.000000000000e+000 2.000000000000e+001 0.000000000000e+000
          8.000000000000e+000 0.000000000000e+000 0.000000000000e+000
          8.000000000000e+000 2.500000000000e+000 0.000000000000e+000
          8.000000000000e+000 5.000000000000e+000 0.000000000000e+000
          8.000000000000e+000 7.500000000000e+000 0.000000000000e+000
          8.000000000000e+000 1.000000000000e+001 0.000000000000e+000
          8.000000000000e+000 1.250000000000e+001 0.000000000000e+000
          8.000000000000e+000 1.500000000000e+001 0.000000000000e+000
          8.000000000000e+000 1.750000000000e+001 0.000000000000e+000
          8.000000000000e+000 2.000000000000e+001 0.000000000000e+000
          1.000000000000e+001 0.000000000000e+000 0.000000000000e+000
          1.000000000000e+001 2.500000000000e+000 0.000000000000e+000
          1.000000000000e+001 5.000000000000e+000 0.000000000000e+000
          1.000000000000e+001 7.500000000000e+000 0.000000000000e+000
          1.000000000000e+001 1.000000000000e+001 0.000000000000e+000
          1.000000000000e+001 1.250000000000e+001 0.000000000000e+000
          1.000000000000e+001 1.500000000000e+001 0.000000000000e+000
          1.000000000000e+001 1.750000000000e+001 0.000000000000e+000
          1.000000000000e+001 2.000000000000e+001 0.000000000000e+000
          1.200000000000e+001 0.000000000000e+000 0.000000000000e+000
          1.200000000000e+001 2.500000000000e+000 0.000000000000e+000
          1.200000000000e+001 5.000000000000e+000 0.000000000000e+000
          1.200000000000e+001 7.500000000000e+000 0.000000000000e+000
          1.200000000000e+001 1.000000000000e+001 0.000000000000e+000
          1.200000000000e+001 1.250000000000e+001 0.000000000000e+000
          1.200000000000e+001 1.500000000000e+001 0.000000000000e+000
          1.200000000000e+001 1.750000000000e+001 0.000000000000e+000
          1.200000000000e+001 2.000000000000e+001 0.000000000000e+000
          1.400000000000e+001 0.000000000000e+000 0.000000000000e+000
          1.400000000000e+001 2.500000000000e+000 0.000000000000e+000
          1.400000000000e+001 5.000000000000e+000 0.000000000000e+000
          1.400000000000e+001 7.500000000000e+000 0.000000000000e+000
          1.400000000000e+001 1.000000000000e+001 0.000000000000e+000
          1.400000000000e+001 1.250000000000e+001 0.000000000000e+000
          1.400000000000e+001 1.500000000000e+001 0.000000000000e+000
          1.400000000000e+001 1.750000000000e+001 0.000000000000e+000
          1.400000000000e+001 2.000000000000e+001 0.000000000000e+000
          1.600000000000e+001 0.000000000000e+000 0.000000000000e+000
          1.600000000000e+001 2.500000000000e+000 0.000000000000e+000
          1.600000000000e+001 5.000000000000e+000 0.000000000000e+000
          1.600000000000e+001 7.500000000000e+000 0.000000000000e+000
          1.600000000000e+001 1.000000000000e+001 0.000000000000e+000
          1.600000000000e+001 1.250000000000e+001 0.000000000000e+000
          1.600000000000e+001 1.500000000000e+001 0.000000000000e+000
          1.600000000000e+001 1.750000000000e+001 0.000000000000e+000
          1.600000000000e+001 2.000000000000e+001 0.000000000000e+000
          1.800000000000e+001 0.000000000000e+000 0.000000000000e+000
          1.800000000000e+001 2.500000000000e+000 0.000000000000e+000
          1.800000000000e+001 5.000000000000e+000 0.000000000000e+000
          1.800000000000e+001 7.500000000000e+000 0.000000000000e+000
          1.800000000000e+001 1.000000000000e+001 0.000000000000e+000
          1.800000000000e+001 1.250000000000e+001 0.000000000000e+000
          1.800000000000e+001 1.500000000000e+001 0.000000000000e+000
          1.800000000000e+001 1.750000000000e+001 0.000000000000e+000
          1.800000000000e+001 2.000000000000e+001 0.000000000000e+000
          2.000000000000e+001 0.000000000000e+000 0.000000000000e+000
          2.000000000000e+001 2.500000000000e+000 0.000000000000e+000
          2.000000000000e+001 5.000000000000e+000 0.000000000000e+000
          2.000000000000e+001 7.500000000000e+000 0.000000000000e+000
          2.000000000000e+001 1.000000000000e+001 0.000000000000e+000
          2.000000000000e+001 1.250000000000e+001 0.000000000000e+000
          2.000000000000e+001 1.500000000000e+001 0.000000000000e+000
          2.000000000000e+001 1.750000000000e+001 0.000000000000e+000
          2.000000000000e+001 2.000000000000e+001 0.000000000000e+000
          2.200000000000e+001 0.000000000000e+000 0.000000000000e+000
          2.200000000000e+001 2.500000000000e+000 0.000000000000e+000
          2.200000000000e+001 5.000000000000e+000 0.000000000000e+000
          2.200000000000e+001 7.500000000000e+000 0.000000000000e+000
          2.200000000000e+001 1.000000000000e+001 0.000000000000e+000
          2.200000000000e+001 1.250000000000e+001 0.000000000000e+000
          2.200000000000e+001 1.500000000000e+001 0.000000000000e+000
          2.200000000000e+001 1.750000000000e+001 0.000000000000e+000
          2.200000000000e+001 2.000000000000e+001 0.000000000000e+000
          2.400000000000e+001 0.000000000000e+000 0.000000000000e+000
          2.400000000000e+001 2.500000000000e+000 0.000000000000e+000
          2.400000000000e+001 5.000000000000e+000 0.000000000000e+000
          2.400000000000e+001 7.500000000000e+000 0.000000000000e+000
          2.400000000000e+001 1.000000000000e+001 0.000000000000e+000
          2.400000000000e+001 1.250000000000e+001 0.000000000000e+000
          2.400000000000e+001 1.500000000000e+001 0.000000000000e+000
          2.400000000000e+001 1.750000000000e+001 0.000000000000e+000
          2.400000000000e+001 2.000000000000e+001 0.000000000000e+000
          2.600000000000e+001 0.000000000000e+000 0.000000000000e+000
          2.600000000000e+001 2.500000000000e+000 0.000000000000e+000
          2.600000000000e+001 5.000000000000e+000 0.000000000000e+000
          2.600000000000e+001 7.500000000000e+000 0.000000000000e+000
          2.600000000000e+001 1.000000000000e+001 0.000000000000e+000
          2.600000000000e+001 1.250000000000e+001 0.000000000000e+000
          2.600000000000e+001 1.500000000000e+001 0.000000000000e+000
          2.600000000000e+001 1.750000000000e+001 0.000000000000e+000
          2.600000000000e+001 2.000000000000e+001 0.000000000000e+000
          2.800000000000e+001 0.000000000000e+000 0.000000000000e+000
          2.800000000000e+001 2.500000000000e+000 0.000000000000e+000
          2.800000000000e+001 5.000000000000e+000 0.000000000000e+000
          2.800000000000e+001 7.500000000000e+000 0.000000000000e+000
          2.800000000000e+001 1.000000000000e+001 0.000000000000e+000
          2.800000000000e+001 1.250000000000e+001 0.000000000000e+000
          2.800000000000e+001 1.500000000000e+001 0.000000000000e+000
          2.800000000000e+001 1.750000000000e+001 0.000000000000e+000
          2.800000000000e+001 2.000000000000e+001 0.000000000000e+000
          3.000000000000e+001 0.000000000000e+000 0.000000000000e+000
          3.000000000000e+001 2.500000000000e+000 0.000000000000e+000
          3.000000000000e+001 5.000000000000e+000 0.000000000000e+000
          3.000000000000e+001 7.500000000000e+000 0.000000000000e+000
[...]
      <PointData Scalars="CAPILLARY_PRESSURE">
        <DataArray type="Float64" Name="CAPILLARY_PRESSURE" format="ascii">
          3.876140165049e+005 3.858176580544e+005 3.858176580543e+005 3.876140165049e+005 3.858176580543e+005 3.876140165049e+005 3.858176580543e+005 3.876140165049e+005 3.858176580543e+005 3.876140165049e+005 3.858176580543e+005 3.876140165049e+005 3.858176580544e+005 3.876140165049e+005 3.858176580543e+005 3.876140165049e+005 3.858176580544e+005 3.876140165049e+005 3.840061772527e+005 3.840061772527e+005 3.840061772527e+005 3.840061772527e+005 3.840061772527e+005 3.840061772526e+005 3.840061772527e+005 3.840061772527e+005 3.840061772527e+005 3.821790383564e+005 3.821790383564e+005 3.821790383564e+005 3.821790383564e+005 3.821790383564e+005 3.821790383564e+005 3.821790383564e+005 3.821790383564e+005 3.821790383564e+005 3.803358495107e+005 3.803358495108e+005 3.803358495108e+005 3.803358495108e+005 3.803358495107e+005 3.803358495108e+005 3.803358495108e+005 3.803358495108e+005 3.803358495107e+005 3.784763264624e+005 3.784763264624e+005 3.784763264624e+005 3.784763264624e+005 3.784763264624e+005 3.784763264624e+005 3.784763264624e+005 3.784763264624e+005 3.784763264624e+005 3.766000863426e+005 3.766000863426e+005 3.766000863426e+005 3.766000863426e+005 3.766000863426e+005 3.766000863426e+005 3.766000863426e+005 3.766000863426e+005 3.766000863426e+005 3.747067448058e+005 3.747067448058e+005 3.747067448058e+005 3.747067448058e+005 3.747067448058e+005 3.747067448058e+005 3.747067448058e+005 3.747067448058e+005 3.747067448058e+005 3.727959018482e+005 3.727959018482e+005 3.727959018481e+005 3.727959018482e+005 3.727959018482e+005 3.727959018482e+005 3.727959018482e+005 3.727959018482e+005 3.727959018482e+005 3.708671469829e+005 3.708671469829e+005 3.708671469829e+005 3.708671469829e+005 3.708671469829e+005 3.708671469829e+005 3.708671469829e+005 3.708671469829e+005 3.708671469829e+005 3.689200535566e+005 3.689200535566e+005 3.689200535566e+005 3.689200535566e+005 3.689200535566e+005 3.689200535566e+005 3.689200535566e+005 3.689200535566e+005 3.689200535566e+005 3.669541782588e+005 3.669541782588e+005 3.669541782587e+005 3.669541782588e+005 3.669541782587e+005 3.669541782587e+005 3.669541782588e+005 3.669541782588e+005 3.669541782587e+005 3.649690600625e+005 3.649690600624e+005 3.649690600625e+005 3.649690600624e+005 3.649690600625e+005 3.649690600625e+005 3.649690600624e+005 3.649690600624e+005 3.649690600625e+005 3.629642196157e+005 3.629642196157e+005 3.629642196157e+005 3.629642196157e+005 3.629642196157e+005 3.629642196157e+005 3.629642196157e+005 3.629642196157e+005 3.629642196157e+005 3.609391582923e+005 3.609391582922e+005 3.609391582922e+005 3.609391582922e+005 3.609391582922e+005 3.609391582923e+005 3.609391582922e+005 3.609391582923e+005 3.609391582922e+005 3.588933571352e+005 3.588933571352e+005 3.588933571352e+005 3.588933571352e+005 3.588933571352e+005 3.588933571352e+005 3.588933571352e+005 3.588933571352e+005 3.588933571352e+005 3.568262756697e+005 3.568262756697e+005 3.568262756697e+005 3.568262756697e+005 3.568262756697e+005 3.568262756697e+005 3.568262756697e+005 3.568262756697e+005 3.568262756697e+005 3.547373506420e+005 3.547373506420e+005 3.547373506420e+005 3.547373506420e+005 3.547373506420e+005 3.547373506420e+005 3.547373506420e+005 3.547373506420e+005 3.547373506420e+005 3.526259946733e+005 3.526259946733e+005 3.526259946733e+005 3.526259946733e+005 3.526259946733e+005 3.526259946733e+005 3.526259946733e+005 3.526259946733e+005 3.526259946733e+005 3.504915948207e+005 3.504915948207e+005 3.504915948207e+005 3.504915948207e+005 3.504915948207e+005 3.504915948207e+005 3.504915948207e+005 3.504915948207e+005 3.504915948208e+005 3.483335110302e+005 3.483335110302e+005 3.483335110302e+005 3.483335110302e+005 3.483335110302e+005 3.483335110302e+005 3.483335110302e+005 3.483335110302e+005 3.483335110302e+005 3.461510744677e+005 3.461510744677e+005 3.461510744677e+005 3.461510744677e+005 3.461510744677e+005 3.461510744677e+005 3.461510744677e+005 3.461510744677e+005 3.461510744677e+005 3.439435857158e+005 3.439435857158e+005 3.439435857158e+005 3.439435857158e+005 3.439435857158e+005 3.439435857158e+005 3.439435857158e+005 3.439435857158e+005 3.439435857158e+005 3.417103128233e+005 3.417103128233e+005 3.417103128233e+005 3.417103128233e+005 3.417103128233e+005 3.417103128233e+005 3.417103128233e+005 3.417103128233e+005 3.417103128233e+005 3.394504891923e+005 3.394504891923e+005 3.394504891923e+005 3.394504891924e+005 3.394504891923e+005 3.394504891924e+005 3.394504891923e+005 3.394504891924e+005 3.394504891924e+005 3.371633112892e+005 3.371633112892e+005 3.371633112892e+005 3.371633112892e+005 3.371633112892e+005 3.371633112892e+005 3.371633112892e+005 3.371633112892e+005 3.371633112892e+005 3.348479361581e+005 3.348479361581e+005 3.348479361582e+005 3.348479361581e+005 3.348479361581e+005 3.348479361582e+005 3.348479361582e+005 3.348479361581e+005 3.348479361581e+005 3.325034787195e+005 3.325034787195e+005 3.325034787195e+005 3.325034787195e+005 3.325034787195e+005 3.325034787195e+005 3.325034787195e+005 3.325034787195e+005 3.325034787195e+005 3.301290088273e+005 3.301290088274e+005 3.301290088274e+005 3.301290088274e+005 3.301290088274e+005 3.301290088274e+005 3.301290088274e+005 3.301290088274e+005 3.301290088274e+005 3.277235480616e+005 3.277235480616e+005 3.277235480616e+005 3.277235480615e+005 3.277235480616e+005 3.277235480615e+005 3.277235480616e+005 3.277235480616e+005 3.277235480616e+005 3.252860662228e+005 3.252860662228e+005 3.252860662228e+005 3.252860662228e+005 3.252860662228e+005 3.252860662228e+005 3.252860662228e+005 3.252860662228e+005 3.252860662228e+005 3.228154774984e+005 3.228154774984e+005 3.228154774984e+005 3.228154774984e+005 3.228154774984e+005 3.228154774984e+005 3.228154774984e+005 3.228154774984e+005 3.228154774984e+005 3.203106362592e+005 3.203106362592e+005 3.203106362592e+005 3.203106362592e+005 3.203106362592e+005 3.203106362592e+005 3.203106362592e+005 3.203106362592e+005 3.203106362592e+005 3.177703324448e+005 3.177703324448e+005 3.177703324448e+005 3.177703324448e+005 3.177703324448e+005 3.177703324448e+005 3.177703324448e+005 3.177703324448e+005 3.177703324448e+005 3.151932864859e+005 3.151932864859e+005 3.151932864859e+005 3.151932864859e+005 3.151932864859e+005 3.151932864859e+005 3.151932864859e+005 3.151932864859e+005 3.151932864859e+005 3.125781437072e+005 3.125781437072e+005 3.125781437072e+005 3.125781437072e+005 3.125781437072e+005 3.125781437072e+005 3.125781437072e+005 3.125781437072e+005 3.125781437072e+005 3.099234681451e+005 3.099234681451e+005 3.099234681451e+005 3.099234681451e+005 3.099234681451e+005 3.099234681451e+005 3.099234681451e+005 3.099234681451e+005 3.099234681451e+005 3.072277357037e+005 3.072277357037e+005 3.072277357037e+005 3.072277357037e+005 3.072277357037e+005 3.072277357037e+005 3.072277357037e+005 3.072277357037e+005 3.072277357037e+005 3.044893265608e+005 3.044893265609e+005 3.044893265608e+005 3.044893265609e+005 3.044893265609e+005 3.044893265609e+005 3.044893265609e+005 3.044893265608e+005 3.044893265609e+005 3.017065167241e+005 3.017065167241e+005 3.017065167241e+005 3.017065167241e+005 3.017065167241e+005 3.017065167241e+005 3.017065167241e+005 3.017065167241e+005 3.017065167241e+005 2.988774686159e+005 2.988774686159e+005 2.988774686159e+005 2.988774686159e+005 2.988774686159e+005 2.988774686159e+005 2.988774686159e+005 2.988774686159e+005 2.988774686159e+005 2.960002205515e+005 2.960002205515e+005 2.960002205515e+005 2.960002205515e+005 2.960002205515e+005 2.960002205515e+005 2.960002205515e+005 2.960002205515e+005 2.960002205515e+005 2.930726749460e+005 2.930726749460e+005 2.930726749460e+005 2.930726749460e+005 2.930726749460e+005 2.930726749460e+005 2.930726749460e+005 2.930726749460e+005 2.930726749460e+005 2.900925850606e+005 2.900925850606e+005 2.900925850606e+005 2.900925850606e+005 2.900925850606e+005 2.900925850606e+005 2.900925850606e+005 2.900925850606e+005 2.900925850606e+005 2.870575400623e+005 2.870575400623e+005 2.870575400623e+005 2.870575400623e+005 2.870575400623e+005 2.870575400623e+005 2.870575400623e+005 2.870575400623e+005 2.870575400623e+005 2.839649481298e+005 2.839649481298e+005 2.839649481298e+005 2.839649481298e+005 2.839649481298e+005 2.839649481298e+005 2.839649481298e+005 2.839649481298e+005 2.839649481298e+005 2.808120172868e+005 2.808120172867e+005 2.808120172868e+005 2.808120172868e+005 2.808120172868e+005 2.808120172867e+005 2.808120172868e+005 2.808120172868e+005 2.808120172867e+005 2.775957335813e+005 2.775957335813e+005 2.775957335813e+005 2.775957335813e+005 2.775957335813e+005 2.775957335813e+005 2.775957335813e+005 2.775957335813e+005 2.775957335813e+005 2.743128361527e+005 2.743128361527e+005 2.743128361527e+005 2.743128361527e+005 2.743128361527e+005 2.743128361527e+005 2.743128361527e+005 2.743128361527e+005 2.743128361527e+005 2.709597886299e+005 2.709597886299e+005 2.709597886299e+005 2.709597886299e+005 2.709597886299e+005 2.709597886299e+005 2.709597886299e+005 2.709597886299e+005 2.709597886299e+005 2.675327461879e+005 2.675327461879e+005 2.675327461879e+005 2.675327461879e+005 2.675327461879e+005 2.675327461879e+005 2.675327461879e+005 2.675327461879e+005 2.675327461879e+005 2.640275174340e+005 2.640275174340e+005 2.640275174340e+005 2.640275174339e+005 2.640275174340e+005 2.640275174340e+005 2.640275174340e+005 2.640275174340e+005 2.640275174340e+005 2.604395201101e+005 2.604395201101e+005 2.604395201101e+005 2.604395201101e+005 2.604395201101e+005 2.604395201101e+005 2.604395201101e+005 2.604395201101e+005 2.604395201101e+005 2.567637293492e+005 2.567637293492e+005 2.567637293492e+005 2.567637293492e+005 2.567637293492e+005 2.567637293492e+005 2.567637293492e+005 2.567637293492e+005 2.567637293492e+005 2.529946169139e+005 2.529946169139e+005 2.529946169139e+005 2.529946169139e+005 2.529946169139e+005 2.529946169139e+005 2.529946169139e+005 2.529946169139e+005 2.529946169139e+005 2.491260794408e+005 2.491260794408e+005 2.491260794408e+005 2.491260794408e+005 2.491260794408e+005 2.491260794408e+005 2.491260794408e+005 2.491260794408e+005 2.491260794408e+005 2.451513531824e+005 2.451513531824e+005 2.451513531824e+005 2.451513531824e+005 2.451513531824e+005 2.451513531824e+005 2.451513531824e+005 2.451513531824e+005 2.451513531824e+005 2.410629120411e+005 2.410629120411e+005 2.410629120411e+005 2.410629120411e+005 2.410629120411e+005 2.410629120411e+005 2.410629120411e+005 2.410629120411e+005 2.410629120411e+005 2.368523447557e+005 2.368523447557e+005 2.368523447557e+005 2.368523447557e+005 2.368523447557e+005 2.368523447557e+005 2.368523447557e+005 2.368523447557e+005 2.368523447557e+005 2.325102058472e+005 2.325102058473e+005 2.325102058473e+005 2.325102058472e+005 2.325102058473e+005 2.325102058473e+005 2.325102058473e+005 2.325102058473e+005 2.325102058472e+005 2.280258332184e+005 2.280258332184e+005 2.280258332184e+005 2.280258332184e+005 2.280258332183e+005 2.280258332184e+005 2.280258332183e+005 2.280258332184e+005 2.280258332184e+005 2.233871229410e+005 2.233871229410e+005 2.233871229410e+005 2.233871229410e+005 2.233871229410e+005 2.233871229410e+005 2.233871229410e+005 2.233871229410e+005 2.233871229410e+005 2.185802484406e+005 2.185802484406e+005 2.185802484406e+005 2.185802484406e+005 2.185802484406e+005 2.185802484406e+005 2.185802484406e+005 2.185802484406e+005 2.185802484406e+005 2.135893064646e+005 2.135893064646e+005 2.135893064646e+005 2.135893064646e+005 2.135893064646e+005 2.135893064646e+005 2.135893064646e+005 2.135893064646e+005 2.135893064646e+005 2.083958651014e+005 2.083958651015e+005 2.083958651015e+005 2.083958651014e+005 2.083958651015e+005 2.083958651014e+005 2.083958651014e+005 2.083958651014e+005 2.083958651015e+005 2.029783787853e+005 2.029783787853e+005 2.029783787853e+005 2.029783787853e+005 2.029783787853e+005 2.029783787853e+005 2.029783787853e+005 2.029783787853e+005 2.029783787853e+005 1.973114210105e+005 1.973114210105e+005 1.973114210105e+005 1.973114210105e+005 1.973114210105e+005 1.973114210105e+005 1.973114210105e+005 1.973114210105e+005 1.973114210105e+005 1.913646650243e+005 1.913646650243e+005 1.913646650243e+005 1.913646650243e+005 1.913646650243e+005 1.913646650243e+005 1.913646650243e+005 1.913646650243e+005 1.913646650243e+005 1.851015040489e+005 1.851015040489e+005 1.851015040489e+005 1.851015040489e+005 1.851015040489e+005 1.851015040489e+005 1.851015040489e+005 1.851015040489e+005 1.851015040489e+005 1.784771217913e+005 1.784771217913e+005 1.784771217913e+005 1.784771217913e+005 1.784771217913e+005 1.784771217913e+005 1.784771217913e+005 1.784771217913e+005 1.784771217913e+005 1.714357055949e+005 1.714357055950e+005 1.714357055950e+005 1.714357055950e+005 1.714357055950e+005 1.714357055950e+005 1.714357055950e+005 1.714357055951e+005 1.714357055951e+005 1.639064006936e+005 1.639064006936e+005 1.639064006936e+005 1.639064006937e+005 1.639064006936e+005 1.639064006936e+005 1.639064006936e+005 1.639064006937e+005 1.639064006937e+005 1.557973969350e+005 1.557973969350e+005 1.557973969349e+005 1.557973969349e+005 1.557973969349e+005 1.557973969350e+005 1.557973969347e+005 1.557973969347e+005 1.557973969347e+005 1.469865419876e+005 1.469865419874e+005 1.469865419871e+005 1.469865419867e+005 1.469865419871e+005 1.469865419874e+005 1.469865419870e+005 1.469865419867e+005 1.469865419865e+005 1.373050416542e+005 1.373050416541e+005 1.373050416539e+005 1.373050416533e+005 1.373050416536e+005 1.373050416547e+005 1.373050416543e+005 1.373050416543e+005 1.373050416538e+005 1.265095039883e+005 1.265095039884e+005 1.265095039903e+005 1.265095039901e+005 1.265095039889e+005 1.265095039894e+005 1.265095039898e+005 1.265095039913e+005 1.265095039903e+005 1.142316275017e+005 1.142316275004e+005 1.142316275046e+005 1.142316275072e+005 1.142316275024e+005 1.142316274998e+005 1.142316275012e+005 1.142316275050e+005 1.142316275024e+005 9.986945915980e+004 9.986945915190e+004 9.986945915221e+004 9.986945915954e+004 9.986945915484e+004 9.986945914839e+004 9.986945915119e+004 9.986945915318e+004 9.986945914758e+004 8.233357213015e+004 8.233357211422e+004 8.233357209978e+004 8.233357211036e+004 8.233357211601e+004 8.233357211354e+004 8.233357211863e+004 8.233357211068e+004 8.233357210447e+004 5.935076583014e+004 5.935076582479e+004 5.935076580271e+004 5.935076580302e+004 5.935076582412e+004 5.935076582990e+004 5.935076583720e+004 5.935076581804e+004 5.935076582661e+004 2.533608754259e+004 2.533608761279e+004 2.533608762406e+004 2.533608758804e+004 2.533608759690e+004 2.533608759616e+004 2.533608759859e+004 2.533608757572e+004 2.533608764193e+004 -2.415313518678e+004 -2.415313415045e+004 -2.415313371089e+004 -2.415313427291e+004 -2.415313431691e+004 -2.415313446799e+004 -2.415313448591e+004 -2.415313464992e+004 -2.415313375157e+004 -7.561403144312e+004 -7.561403014361e+004 -7.561402886320e+004 -7.561403002298e+004 -7.561403064064e+004 -7.561403058140e+004 -7.561403080477e+004 -7.561402963883e+004 -7.561402928554e+004 -1.270554818744e+005 -1.270554800896e+005 -1.270554790397e+005 -1.270554794124e+005 -1.270554789728e+005 -1.270554775149e+005 -1.270554793112e+005 -1.270554787469e+005 -1.270554783036e+005 -1.784892327312e+005 -1.784892298675e+005 -1.784892292139e+005 -1.784892274428e+005 -1.784892275821e+005 -1.784892273504e+005 -1.784892276419e+005 -1.784892263349e+005 -1.784892255958e+005 -2.299116834192e+005 -2.299116825091e+005 -2.299116815013e+005 -2.299116801713e+005 -2.299116796005e+005 -2.299116787411e+005 -2.299116788685e+005 -2.299116774847e+005 -2.299116780162e+005 -2.813239480335e+005 -2.813239478874e+005 -2.813239457351e+005 -2.813239470559e+005 -2.813239447800e+005 -2.813239443676e+005 -2.813239441040e+005 -2.813239429699e+005 -2.813239418792e+005 -3.327256910301e+005 -3.327256900424e+005 -3.327256909907e+005 -3.327256887303e+005 -3.327256884224e+005 -3.327256872858e+005 -3.327256870701e+005 -3.327256868850e+005 -3.327256858118e+005 -3.841170160827e+005 -3.841170176634e+005 -3.841170170339e+005 -3.841170168648e+005 -3.841170154477e+005 -3.841170150276e+005 -3.841170141816e+005 -3.841170127921e+005 -3.841170121201e+005 -4.354979014401e+005 -4.354979033217e+005 -4.354979040574e+005 -4.354979026017e+005 -4.354979009978e+005 -4.354979011089e+005 -4.354978995421e+005 -4.354978982005e+005 -4.354978980475e+005 -4.868683563992e+005 -4.868683587361e+005 -4.868683585937e+005 -4.868683585670e+005 -4.868683576005e+005 -4.868683558304e+005 -4.868683546465e+005 -4.868683543561e+005 -4.868683536823e+005 -5.382283868486e+005 -5.382283849079e+005 -5.382283857725e+005 -5.382283857116e+005 -5.382283854019e+005 -5.382283828454e+005 -5.382283818266e+005 -5.382283826283e+005 -5.382283822988e+005 -5.895779901519e+005 -5.895779895854e+005 -5.895779893499e+005 -5.895779892576e+005 -5.895779882914e+005 -5.895779860586e+005 -5.895779867067e+005 -5.895779860769e+005 -5.895779864082e+005 -6.409171739359e+005 -6.409171731585e+005 -6.409171731116e+005 -6.409171716855e+005 -6.409171715354e+005 -6.409171704940e+005 -6.409171702172e+005 -6.409171696274e+005 -6.409171703376e+005 -6.922459401156e+005 -6.922459392156e+005 -6.922459395859e+005 -6.922459392205e+005 -6.922459380879e+005 -6.922459379706e+005 -6.922459373513e+005 -6.922459372825e+005 -6.922459360886e+005 -7.435642918472e+005 -7.435642925171e+005 -7.435642932931e+005 -7.435642928335e+005 -7.435642920986e+005 -7.435642924008e+005 -7.435642917524e+005 -7.435642917867e+005 -7.435642915140e+005 -7.948722361811e+005 -7.948722369519e+005 -7.948722374949e+005 -7.948722369120e+005 -7.948722368677e+005 -7.948722370904e+005 -7.948722362752e+005 -7.948722368074e+005 -7.948722368774e+005 -8.461697760923e+005 -8.461697762058e+005 -8.461697765496e+005 -8.461697766756e+005 -8.461697755341e+005 -8.461697753740e+005 -8.461697756789e+005 -8.461697759445e+005 -8.461697757874e+005 -8.974569127562e+005 -8.974569135784e+005 -8.974569142098e+005 -8.974569141376e+005 -8.974569138339e+005 -8.974569131561e+005 -8.974569131565e+005 -8.974569133269e+005 -8.974569134393e+005 -9.487336534064e+005 -9.487336538388e+005 -9.487336540910e+005 -9.487336539403e+005 -9.487336540333e+005 -9.487336535754e+005 -9.487336535753e+005 -9.487336537392e+005 -9.487336535817e+005 -1.000000000000e+006 -1.000000000000e+006 -1.000000000000e+006 -1.000000000000e+006 -1.000000000000e+006 -1.000000000000e+006 -1.000000000000e+006 -1.000000000000e+006 -1.000000000000e+006 
        </DataArray>
        <DataArray type="Float64" Name="NONWET_PRESSURE" format="ascii">