<?xml version="1.0"?>
<VTKFile type="UnstructuredGrid" version="0.1" byte_order="LittleEndian">
  <UnstructuredGrid>
    <Piece NumberOfPoints="909" NumberOfCells="800">
      <Points>
        <DataArray type="Float64" NumberOfComponents="3" format="ascii">
          0.000000000000e+000 0.000000000000e+000 0.000000000000e+000
          2.000000000000e+000 0.000000000000e+000 0.000000000000e+000
          2.000000000000e+000 2.500000000000e+000 0.000000000000e+000
          0.000000000000e+000 2.500000000000e+000 0.000000000000e+000
          2.000000000000e+000 5.000000000000e+000 0.000000000000e+000
          0.000000000000e+000 5.000000000000e+000 0.000000000000e+000
          2.000000000000e+000 7.500000000000e+000 0.000000000000e+000
          0.000000000000e+000 7.500000000000e+000 0.000000000000e+000
          2.000000000000e+000 1.000000000000e+001 0.000000000000e+000
          0.000000000000e+000 1.000000000000e+001 0.000000000000e+000
          2.000000000000e+000 1.250000000000e+001 0.000000000000e+000
          0.000000000000e+000 1.250000000000e+001 0.000000000000e+000
          2.000000000000e+000 1.500000000000e+001 0.000000000000e+000
          0.000000000000e+000 1.500000000000e+001 0.000000000000e+000
          2.000000000000e+000 1.750000000000e+001 0.000000000000e+000
          0.000000000000e+000 1.750000000000e+001 0.000000000000e+000
          2.000000000000e+000 2.000000000000e+001 0.000000000000e+000
          0.000000000000e+000 2.000000000000e+001 0.000000000000e+000
          4.000000000000e+000 0.000000000000e+000 0.000000000000e+000
          4.000000000000e+000 2.500000000000e+000 0.000000000000e+000
          4.000000000000e+000 5.000000000000e+000 0.000000000000e+000
          4.000000000000e+000 7.500000000000e+000 0.000000000000e+000
          4.000000000000e+000 1.000000000000e+001 0.000000000000e+000
          4.000000000000e+000 1.250000000000e+001 0.000000000000e+000
          4.000000000000e+000 1.500000000000e+001 0.000000000000e+000
          4.000000000000e+000 1.750000000000e+001 0.000000000000e+000
          4.000000000000e+000 2.000000000000e+001 0.000000000000e+000
          6.000000000000e+000 0.000000000000e+000 0.000000000000e+000
          6.000000000000e+000 2.500000000000e+000 0.000000000000e+000
          6.000000000000e+000 5.000000000000e+000 0.000000000000e+000
          6.000000000000e+000 7.500000000000e+000 0.000000000000e+000
          6.000000000000e+000 1.000000000000e+001 0.000000000000e+000
          6.000000000000e+000 1.250000000000e+001 0.000000000000e+000
          6.000000000000e+000 1.500000000000e+001 0.000000000000e+000
          6.000000000000e+000 1.750000000000e+001 0.000000000000e+000
          6.000000000000e+000 2.000000000000e+001 0.000000000000e+000
          8.000000000000e+000 0.000000000000e+000 0.000000000000e+000
          8.000000000000e+000 2.500000000000e+000 0.000000000000e+000
          8.000000000000e+000 5.000000000000e+000 0.000000000000e+000
          8.000000000000e+000 7.500000000000e+000 0.000000000000e+000
          8.000000000000e+000 1.000000000000e+001 0.000000000000e+000
          8.000000000000e+000 1.250000000000e+001 0.000000000000e+000
          8.000000000000e+000 1.500000000000e+001 0.000000000000e+000
          8.000000000000e+000 1.750000000000e+001 0.000000000000e+000
          8.000000000000e+000 2.000000000000e+001 0.000000000000e+000
          1.000000000000e+001 0.000000000000e+000 0.000000000000e+000
          1.000000000000e+001 2.500000000000e+000 0.000000000000e+000
          1.000000000000e+001 5.000000000000e+000 0.000000000000e+000
          1.000000000000e+001 7.500000000000e+000 0.000000000000e+000
          1.000000000000e+001 1.000000000000e+001 0.000000000000e+000
          1.000000000000e+001 1.250000000000e+001 0.000000000000e+000
          1.000000000000e+001 1.500000000000e+001 0.000000000000e+000
          1.000000000000e+001 1.750000000000e+001 0.000000000000e+000
          1.000000000000e+001 2.000000000000e+001 0.000000000000e+000
          1.200000000000e+001 0.000000000000e+000 0.000000000000e+000
          1.200000000000e+001 2.500000000000e+000 0.000000000000e+000
          1.200000000000e+001 5.000000000000e+000 0.000000000000e+000
          1.200000000000e+001 7.500000000000e+000 0.000000000000e+000
          1.200000000000e+001 1.000000000000e+001 0.000000000000e+000
          1.200000000000e+001 1.250000000000e+001 0.000000000000e+000
          1.200000000000e+001 1.500000000000e+001 0.000000000000e+000
          1.200000000000e+001 1.750000000000e+001 0.000000000000e+000
          1.200000000000e+001 2.000000000000e+001 0.000000000000e+000
          1.400000000000e+001 0.000000000000e+000 0.000000000000e+000
          1.400000000000e+001 2.500000000000e+000 0.000000000000e+000
          1.400000000000e+001 5.000000000000e+000 0.000000000000e+000
          1.400000000000e+001 7.500000000000e+000 0.000000000000e+000
          1.400000000000e+001 1.000000000000e+001 0.000000000000e+000
          1.400000000000e+001 1.250000000000e+001 0.000000000000e+000
          1.400000000000e+001 1.500000000000e+001 0.000000000000e+000
          1.400000000000e+001 1.750000000000e+001 0.000000000000e+000
          1.400000000000e+001 2.000000000000e+001 0.000000000000e+000
          1.600000000000e+001 0.000000000000e+000 0.000000000000e+000
          1.600000000000e+001 2.500000000000e+000 0.000000000000e+000
          1.600000000000e+001 5.000000000000e+000 0.000000000000e+000
          1.600000000000e+001 7.500000000000e+000 0.000000000000e+000
          1.600000000000e+001 1.000000000000e+001 0.000000000000e+000
          1.600000000000e+001 1.250000000000e+001 0.000000000000e+000
          1.600000000000e+001 1.500000000000e+001 0.000000000000e+000
          1.600000000000e+001 1.750000000000e+001 0.000000000000e+000
          1.600000000000e+001 2.000000000000e+001 0.000000000000e+000
          1.800000000000e+001 0.000000000000e+000 0.000000000000e+000
          1.800000000000e+001 2.500000000000e+000 0.000000000000e+000
          1.800000000000e+001 5.000000000000e+000 0.000000000000e+000
          1.800000000000e+001 7.500000000000e+000 0.000000000000e+000
          1.800000000000e+001 1.000000000000e+001 0.000000000000e+000
          1.800000000000e+001 1.250000000000e+001 0.000000000000e+000
          1.800000000000e+001 1.500000000000e+001 0.000000000000e+000
          1.800000000000e+001 1.750000000000e+001 0.000000000000e+000
          1.800000000000e+001 2.000000000000e+001 0.000000000000e+000
          2.000000000000e+001 0.000000000000e+000 0.000000000000e+000
          2.000000000000e+001 2.500000000000e+000 0.000000000000e+000
          2.000000000000e+001 5.000000000000e+000 0.000000000000e+000
          2.000000000000e+001 7.500000000000e+000 0.000000000000e+000
          2.000000000000e+001 1.000000000000e+001 0.000000000000e+000
          2.000000000000e+001 1.250000000000e+001 0.000000000000e+000
          2.000000000000e+001 1.500000000000e+001 0.000000000000e+000
          2.000000000000e+001 1.750000000000e+001 0.000000000000e+000
          2.000000000000e+001 2.000000000000e+001 0.000000000000e+000
          2.200000000000e+001 0.000000000000e+000 0.000000000000e+000
          2.200000000000e+001 2.500000000000e+000 0.000000000000e+000
          2.200000000000e+001 5.000000000000e+000 0.000000000000e+000
          2.200000000000e+001 7.500000000000e+000 0.000000000000e+000
          2.200000000000e+001 1.000000000000e+001 0.000000000000e+000
          2.200000000000e+001 1.250000000000e+001 0.000000000000e+000
          2.200000000000e+001 1.500000000000e+001 0.000000000000e+000
          2.200000000000e+001 1.750000000000e+001 0.000000000000e+000
          2.200000000000e+001 2.000000000000e+001 0.000000000000e+000
          2.400000000000e+001 0.000000000000e+000 0.000000000000e+000
          2.400000000000e+001 2.500000000000e+000 0.000000000000e+000
          2.400000000000e+001 5.000000000000e+000 0.000000000000e+000
          2.400000000000e+001 7.500000000000e+000 0.000000000000e+000
          2.400000000000e+001 1.000000000000e+001 0.000000000000e+000
          2.400000000000e+001 1.250000000000e+001 0.000000000000e+000
          2.400000000000e+001 1.500000000000e+001 0.000000000000e+000
          2.400000000000e+001 1.750000000000e+001 0.000000000000e+000
          2.400000000000e+001 2.000000000000e+001 0.000000000000e+000
          2.600000000000e+001 0.000000000000e+000 0.000000000000e+000
          2.600000000000e+001 2.500000000000e+000 0.000000000000e+000
          2.600000000000e+001 5.000000000000e+000 0.000000000000e+000
          2.600000000000e+001 7.500000000000e+000 0.000000000000e+000
          2.600000000000e+001 1.000000000000e+001 0.000000000000e+000
          2.600000000000e+001 1.250000000000e+001 0.000000000000e+000
          2.600000000000e+001 1.500000000000e+001 0.000000000000e+000
          2.600000000000e+001 1.750000000000e+001 0.000000000000e+000
          2.600000000000e+001 2.000000000000e+001 0.000000000000e+000
          2.800000000000e+001 0.000000000000e+000 0.000000000000e+000
          2.800000000000e+001 2.500000000000e+000 0.000000000000e+000
          2.800000000000e+001 5.000000000000e+000 0.000000000000e+000
          2.800000000000e+001 7.500000000000e+000 0.000000000000e+000
          2.800000000000e+001 1.000000000000e+001 0.000000000000e+000
          2.800000000000e+001 1.250000000000e+001 0.000000000000e+000
          2.800000000000e+001 1.500000000000e+001 0.000000000000e+000
          2.800000000000e+001 1.750000000000e+001 0.000000000000e+000
          2.800000000000e+001 2.000000000000e+001 0.000000000000e+000
          3.000000000000e+001 0.000000000000e+000 0.000000000000e+000
          3.000000000000e+001 2.500000000000e+000 0.000000000000e+000
          3.000000000000e+001 5.000000000000e+000 0.000000000000e+000
          3.000000000000e+001 7.500000000000e+000 0.000000000000e+000
[...]
      <PointData Scalars="CAPILLARY_PRESSURE">
        <DataArray type="Float64" Name="CAPILLARY_PRESSURE" format="ascii">
          2.387039997817e+005 2.348629273427e+005 2.348629273427e+005 2.387039997817e+005 2.348629273427e+005 2.387039997817e+005 2.348629273427e+005 2.387039997817e+005 2.348629273427e+005 2.387039997817e+005 2.348629273427e+005 2.387039997817e+005 2.348629273427e+005 2.387039997817e+005 2.348629273427e+005 2.387039997817e+005 2.348629273427e+005 2.387039997817e+005 2.309991885322e+005 2.309991885322e+005 2.309991885322e+005 2.309991885322e+005 2.309991885322e+005 2.309991885322e+005 2.309991885322e+005 2.309991885322e+005 2.309991885322e+005 2.271091596562e+005 2.271091596562e+005 2.271091596562e+005 2.271091596562e+005 2.271091596562e+005 2.271091596562e+005 2.271091596562e+005 2.271091596562e+005 2.271091596562e+005 2.231887620526e+005 2.231887620526e+005 2.231887620526e+005 2.231887620526e+005 2.231887620526e+005 2.231887620526e+005 2.231887620526e+005 2.231887620526e+005 2.231887620526e+005 2.192337460671e+005 2.192337460671e+005 2.192337460671e+005 2.192337460671e+005 2.192337460671e+005 2.192337460671e+005 2.192337460671e+005 2.192337460671e+005 2.192337460671e+005 2.152396205832e+005 2.152396205832e+005 2.152396205832e+005 2.152396205832e+005 2.152396205832e+005 2.152396205832e+005 2.152396205832e+005 2.152396205832e+005 2.152396205832e+005 2.112014936193e+005 2.112014936193e+005 2.112014936193e+005 2.112014936193e+005 2.112014936193e+005 2.112014936193e+005 2.112014936193e+005 2.112014936193e+005 2.112014936193e+005 2.071139509990e+005 2.071139509990e+005 2.071139509990e+005 2.071139509990e+005 2.071139509990e+005 2.071139509990e+005 2.071139509990e+005 2.071139509990e+005 2.071139509990e+005 2.029709721346e+005 2.029709721346e+005 2.029709721346e+005 2.029709721346e+005 2.029709721346e+005 2.029709721346e+005 2.029709721346e+005 2.029709721346e+005 2.029709721346e+005 1.987658366915e+005 1.987658366915e+005 1.987658366915e+005 1.987658366915e+005 1.987658366915e+005 1.987658366915e+005 1.987658366915e+005 1.987658366915e+005 1.987658366915e+005 1.944910099757e+005 1.944910099757e+005 1.944910099757e+005 1.944910099757e+005 1.944910099757e+005 1.944910099757e+005 1.944910099757e+005 1.944910099757e+005 1.944910099757e+005 1.901380037703e+005 1.901380037703e+005 1.901380037702e+005 1.901380037702e+005 1.901380037702e+005 1.901380037702e+005 1.901380037702e+005 1.901380037702e+005 1.901380037702e+005 1.856972056506e+005 1.856972056506e+005 1.856972056506e+005 1.856972056506e+005 1.856972056506e+005 1.856972056506e+005 1.856972056506e+005 1.856972056506e+005 1.856972056506e+005 1.811576680816e+005 1.811576680816e+005 1.811576680816e+005 1.811576680816e+005 1.811576680816e+005 1.811576680816e+005 1.811576680816e+005 1.811576680816e+005 1.811576680816e+005 1.765068452799e+005 1.765068452799e+005 1.765068452799e+005 1.765068452799e+005 1.765068452799e+005 1.765068452799e+005 1.765068452799e+005 1.765068452799e+005 1.765068452799e+005 1.717302612955e+005 1.717302612955e+005 1.717302612955e+005 1.717302612955e+005 1.717302612955e+005 1.717302612955e+005 1.717302612955e+005 1.717302612955e+005 1.717302612955e+005 1.668110862900e+005 1.668110862900e+005 1.668110862900e+005 1.668110862900e+005 1.668110862900e+005 1.668110862900e+005 1.668110862900e+005 1.668110862900e+005 1.668110862900e+005 1.617295883695e+005 1.617295883695e+005 1.617295883695e+005 1.617295883695e+005 1.617295883696e+005 1.617295883696e+005 1.617295883696e+005 1.617295883696e+005 1.617295883696e+005 1.564624137749e+005 1.564624137749e+005 1.564624137749e+005 1.564624137749e+005 1.564624137749e+005 1.564624137749e+005 1.564624137749e+005 1.564624137749e+005 1.564624137749e+005 1.509816256349e+005 1.509816256349e+005 1.509816256349e+005 1.509816256349e+005 1.509816256349e+005 1.509816256349e+005 1.509816256349e+005 1.509816256349e+005 1.509816256349e+005 1.452533957530e+005 1.452533957530e+005 1.452533957530e+005 1.452533957530e+005 1.452533957530e+005 1.452533957530e+005 1.452533957529e+005 1.452533957529e+005 1.452533957529e+005 1.392361862901e+005 1.392361862901e+005 1.392361862901e+005 1.392361862900e+005 1.392361862900e+005 1.392361862899e+005 1.392361862898e+005 1.392361862898e+005 1.392361862897e+005 1.328781608171e+005 1.328781608171e+005 1.328781608170e+005 1.328781608169e+005 1.328781608168e+005 1.328781608166e+005 1.328781608165e+005 1.328781608164e+005 1.328781608164e+005 1.261133929554e+005 1.261133929554e+005 1.261133929553e+005 1.261133929551e+005 1.261133929548e+005 1.261133929546e+005 1.261133929543e+005 1.261133929541e+005 1.261133929541e+005 1.188561379405e+005 1.188561379406e+005 1.188561379402e+005 1.188561379400e+005 1.188561379396e+005 1.188561379393e+005 1.188561379390e+005 1.188561379389e+005 1.188561379387e+005 1.109918879929e+005 1.109918879925e+005 1.109918879923e+005 1.109918879915e+005 1.109918879909e+005 1.109918879905e+005 1.109918879905e+005 1.109918879906e+005 1.109918879909e+005 1.023627373280e+005 1.023627373289e+005 1.023627373279e+005 1.023627373281e+005 1.023627373277e+005 1.023627373269e+005 1.023627373254e+005 1.023627373244e+005 1.023627373231e+005 9.274223231906e+004 9.274223231700e+004 9.274223232146e+004 9.274223232001e+004 9.274223231917e+004 9.274223231609e+004 9.274223231108e+004 9.274223230485e+004 9.274223230605e+004 8.178922276829e+004 8.178922277247e+004 8.178922275923e+004 8.178922276445e+004 8.178922275945e+004 8.178922275500e+004 8.178922275941e+004 8.178922277031e+004 8.178922275946e+004 6.895442663576e+004 6.895442663445e+004 6.895442666244e+004 6.895442663704e+004 6.895442664135e+004 6.895442665582e+004 6.895442663257e+004 6.895442659635e+004 6.895442664056e+004 5.327710989619e+004 5.327710982744e+004 5.327710975790e+004 5.327710979176e+004 5.327710977683e+004 5.327710970440e+004 5.327710983220e+004 5.327710999113e+004 5.327710985096e+004 3.298205834424e+004 3.298205871488e+004 3.298205867892e+004 3.298205862843e+004 3.298205854284e+004 3.298205889677e+004 3.298205860390e+004 3.298205829431e+004 3.298205882396e+004 5.582384523570e+003 5.582382823154e+003 5.582383490139e+003 5.582383134584e+003 5.582383778077e+003 5.582382483417e+003 5.582383519106e+003 5.582384430417e+003 5.582382775177e+003 -2.571184094402e+004 -2.571184658552e+004 -2.571184687739e+004 -2.571185225010e+004 -2.571185572221e+004 -2.571183927511e+004 -2.571183758142e+004 -2.571184196058e+004 -2.571183222213e+004 -5.627201712875e+004 -5.627202067853e+004 -5.627200713840e+004 -5.627202024406e+004 -5.627202075169e+004 -5.627201375675e+004 -5.627199851738e+004 -5.627199891862e+004 -5.627200747540e+004 -8.610184461880e+004 -8.610182893604e+004 -8.610183310719e+004 -8.610183517919e+004 -8.610183878351e+004 -8.610182009956e+004 -8.610182333226e+004 -8.610181230502e+004 -8.610181689697e+004 -1.151967984800e+005 -1.151968035874e+005 -1.151968065135e+005 -1.151968130942e+005 -1.151968082790e+005 -1.151967942211e+005 -1.151967931380e+005 -1.151967895013e+005 -1.151967820049e+005 -1.435574716390e+005 -1.435574774608e+005 -1.435574793970e+005 -1.435574832809e+005 -1.435574788821e+005 -1.435574641203e+005 -1.435574592438e+005 -1.435574565629e+005 -1.435574530305e+005 -1.711930042152e+005 -1.711929978096e+005 -1.711930072227e+005 -1.711930049782e+005 -1.711929969726e+005 -1.711929881169e+005 -1.711929731171e+005 -1.711929799585e+005 -1.711929740984e+005 -1.981172373862e+005 -1.981172303906e+005 -1.981172390927e+005 -1.981172365600e+005 -1.981172289203e+005 -1.981172190940e+005 -1.981172126252e+005 -1.981172032924e+005 -1.981172066093e+005 -2.243449037604e+005 -2.243449049407e+005 -2.243449096280e+005 -2.243449067981e+005 -2.243449031903e+005 -2.243448862622e+005 -2.243448791818e+005 -2.243448806517e+005 -2.243448714176e+005 -2.498906045658e+005 -2.498906129737e+005 -2.498906068548e+005 -2.498906021455e+005 -2.498906000074e+005 -2.498905888891e+005 -2.498905780199e+005 -2.498905739502e+005 -2.498905716852e+005 -2.747688084568e+005 -2.747687930479e+005 -2.747687964692e+005 -2.747687869618e+005 -2.747687865747e+005 -2.747687795423e+005 -2.747687807297e+005 -2.747687597334e+005 -2.747687663416e+005 -2.989937974734e+005 -2.989938022661e+005 -2.989937968470e+005 -2.989937878339e+005 -2.989937857109e+005 -2.989937855019e+005 -2.989937744016e+005 -2.989937686476e+005 -2.989937651274e+005 -3.225797779918e+005 -3.225797822094e+005 -3.225797853722e+005 -3.225797706849e+005 -3.225797627777e+005 -3.225797633845e+005 -3.225797559377e+005 -3.225797521391e+005 -3.225797436592e+005 -3.455407737015e+005 -3.455407760448e+005 -3.455407726656e+005 -3.455407670761e+005 -3.455407594823e+005 -3.455407504116e+005 -3.455407446674e+005 -3.455407418235e+005 -3.455407436794e+005 -3.678906751360e+005 -3.678906689856e+005 -3.678906659310e+005 -3.678906574752e+005 -3.678906515751e+005 -3.678906410541e+005 -3.678906375427e+005 -3.678906318215e+005 -3.678906294777e+005 -3.896432093382e+005 -3.896432062700e+005 -3.896431996275e+005 -3.896431932373e+005 -3.896431821484e+005 -3.896431752660e+005 -3.896431737824e+005 -3.896431672827e+005 -3.896431639239e+005 -4.108119855329e+005 -4.108119835665e+005 -4.108119775272e+005 -4.108119687557e+005 -4.108119611654e+005 -4.108119557534e+005 -4.108119487683e+005 -4.108119458594e+005 -4.108119402150e+005 -4.314104538378e+005 -4.314104490773e+005 -4.314104464238e+005 -4.314104408671e+005 -4.314104344458e+005 -4.314104244946e+005 -4.314104177384e+005 -4.314104130659e+005 -4.314104134209e+005 -4.514519157328e+005 -4.514519135159e+005 -4.514519104396e+005 -4.514519057406e+005 -4.514518985807e+005 -4.514518882005e+005 -4.514518838689e+005 -4.514518780647e+005 -4.514518769962e+005 -4.709495255148e+005 -4.709495246657e+005 -4.709495221756e+005 -4.709495176413e+005 -4.709495123832e+005 -4.709495054677e+005 -4.709495016291e+005 -4.709494938834e+005 -4.709494977481e+005 -4.899162971949e+005 -4.899162927147e+005 -4.899162921663e+005 -4.899162906170e+005 -4.899162890686e+005 -4.899162815391e+005 -4.899162776437e+005 -4.899162748372e+005 -4.899162737325e+005 -5.083651025481e+005 -5.083651100046e+005 -5.083651066182e+005 -5.083651034878e+005 -5.083651028172e+005 -5.083651011036e+005 -5.083650952398e+005 -5.083650908662e+005 -5.083650889789e+005 -5.263087089501e+005 -5.263087114198e+005 -5.263087104928e+005 -5.263087049333e+005 -5.263087026008e+005 -5.263087008941e+005 -5.263086971337e+005 -5.263086975266e+005 -5.263086943335e+005 -5.437597229790e+005 -5.437597222573e+005 -5.437597206584e+005 -5.437597179377e+005 -5.437597163617e+005 -5.437597154925e+005 -5.437597115692e+005 -5.437597153311e+005 -5.437597118817e+005 -5.607306514538e+005 -5.607306521505e+005 -5.607306502293e+005 -5.607306465013e+005 -5.607306454865e+005 -5.607306461587e+005 -5.607306427327e+005 -5.607306434103e+005 -5.607306412854e+005 -5.772338900703e+005 -5.772338904357e+005 -5.772338884591e+005 -5.772338878669e+005 -5.772338857300e+005 -5.772338865898e+005 -5.772338850807e+005 -5.772338840018e+005 -5.772338860856e+005 -5.932817252705e+005 -5.932817266296e+005 -5.932817280487e+005 -5.932817277921e+005 -5.932817296866e+005 -5.932817256811e+005 -5.932817247319e+005 -5.932817257754e+005 -5.932817275161e+005 -6.088863508744e+005 -6.088863515912e+005 -6.088863553358e+005 -6.088863554410e+005 -6.088863541192e+005 -6.088863504275e+005 -6.088863518259e+005 -6.088863530562e+005 -6.088863541867e+005 -6.240598541750e+005 -6.240598575634e+005 -6.240598577782e+005 -6.240598571614e+005 -6.240598541490e+005 -6.240598549559e+005 -6.240598569079e+005 -6.240598542335e+005 -6.240598550859e+005 -6.388142261869e+005 -6.388142265205e+005 -6.388142263973e+005 -6.388142258765e+005 -6.388142249442e+005 -6.388142231826e+005 -6.388142256721e+005 -6.388142240027e+005 -6.388142236989e+005 -6.531613679855e+005 -6.531613649660e+005 -6.531613666424e+005 -6.531613656330e+005 -6.531613627966e+005 -6.531613640283e+005 -6.531613656258e+005 -6.531613650060e+005 -6.531613648505e+005 -6.671130884791e+005 -6.671130897909e+005 -6.671130898509e+005 -6.671130905426e+005 -6.671130869552e+005 -6.671130869324e+005 -6.671130901951e+005 -6.671130895755e+005 -6.671130880518e+005 -6.806811277328e+005 -6.806811288077e+005 -6.806811281065e+005 -6.806811268487e+005 -6.806811252818e+005 -6.806811262350e+005 -6.806811290899e+005 -6.806811286980e+005 -6.806811262089e+005 -6.938771226024e+005 -6.938771235765e+005 -6.938771233685e+005 -6.938771239521e+005 -6.938771210244e+005 -6.938771224307e+005 -6.938771245308e+005 -6.938771235356e+005 -6.938771218646e+005 -7.067126412774e+005 -7.067126422721e+005 -7.067126435629e+005 -7.067126409185e+005 -7.067126411400e+005 -7.067126422345e+005 -7.067126425496e+005 -7.067126435387e+005 -7.067126401216e+005 -7.191991698922e+005 -7.191991707891e+005 -7.191991703513e+005 -7.191991683674e+005 -7.191991703786e+005 -7.191991699176e+005 -7.191991690499e+005 -7.191991693080e+005 -7.191991686951e+005 -7.313481215527e+005 -7.313481207809e+005 -7.313481203493e+005 -7.313481199797e+005 -7.313481170842e+005 -7.313481171976e+005 -7.313481197094e+005 -7.313481183827e+005 -7.313481181498e+005 -7.431708305873e+005 -7.431708281046e+005 -7.431708278727e+005 -7.431708260642e+005 -7.431708243507e+005 -7.431708247231e+005 -7.431708271340e+005 -7.431708259203e+005 -7.431708268784e+005 -7.546785606492e+005 -7.546785598907e+005 -7.546785598772e+005 -7.546785590467e+005 -7.546785582677e+005 -7.546785581690e+005 -7.546785593852e+005 -7.546785597634e+005 -7.546785595153e+005 -7.658825116054e+005 -7.658825137919e+005 -7.658825142913e+005 -7.658825150016e+005 -7.658825135818e+005 -7.658825143389e+005 -7.658825156363e+005 -7.658825143431e+005 -7.658825135528e+005 -7.767938210927e+005 -7.767938189921e+005 -7.767938215649e+005 -7.767938217139e+005 -7.767938204194e+005 -7.767938227735e+005 -7.767938213611e+005 -7.767938215912e+005 -7.767938210514e+005 -7.874235454488e+005 -7.874235440853e+005 -7.874235439090e+005 -7.874235436566e+005 -7.874235432916e+005 -7.874235451316e+005 -7.874235447889e+005 -7.874235453040e+005 -7.874235433975e+005 -7.977826822314e+005 -7.977826855599e+005 -7.977826860125e+005 -7.977826858010e+005 -7.977826851756e+005 -7.977826867803e+005 -7.977826864711e+005 -7.977826866288e+005 -7.977826872207e+005 -8.078821858211e+005 -8.078821892410e+005 -8.078821883153e+005 -8.078821883469e+005 -8.078821913287e+005 -8.078821893873e+005 -8.078821907464e+005 -8.078821907752e+005 -8.078821910674e+005 -8.177329382553e+005 -8.177329397987e+005 -8.177329402336e+005 -8.177329391875e+005 -8.177329405424e+005 -8.177329409805e+005 -8.177329421235e+005 -8.177329406718e+005 -8.177329409072e+005 -8.273457679888e+005 -8.273457668570e+005 -8.273457670501e+005 -8.273457683544e+005 -8.273457669842e+005 -8.273457678077e+005 -8.273457679124e+005 -8.273457674679e+005 -8.273457670366e+005 -8.367314465179e+005 -8.367314476769e+005 -8.367314460861e+005 -8.367314466940e+005 -8.367314465133e+005 -8.367314472751e+005 -8.367314473565e+005 -8.367314462740e+005 -8.367314475049e+005 -8.459007052508e+005 -8.459007023245e+005 -8.459007016566e+005 -8.459007031306e+005 -8.459007022506e+005 -8.459007014970e+005 -8.459007021120e+005 -8.459007015753e+005 -8.459007029584e+005 -8.548642133658e+005 -8.548642103421e+005 -8.548642088649e+005 -8.548642102165e+005 -8.548642103542e+005 -8.548642106685e+005 -8.548642104913e+005 -8.548642109700e+005 -8.548642088925e+005 -8.636326021870e+005 -8.636326011354e+005 -8.636325998160e+005 -8.636326006769e+005 -8.636326012570e+005 -8.636326010837e+005 -8.636326012552e+005 -8.636326000097e+005 -8.636325999989e+005 -8.722164619377e+005 -8.722164600097e+005 -8.722164588229e+005 -8.722164591686e+005 -8.722164586949e+005 -8.722164572130e+005 -8.722164589767e+005 -8.722164584122e+005 -8.722164578823e+005 -8.806263329614e+005 -8.806263300977e+005 -8.806263294107e+005 -8.806263275701e+005 -8.806263276654e+005 -8.806263273998e+005 -8.806263276640e+005 -8.806263263413e+005 -8.806263256197e+005 -8.888727161971e+005 -8.888727152628e+005 -8.888727142297e+005 -8.888727128605e+005 -8.888727122608e+005 -8.888727113767e+005 -8.888727114840e+005 -8.888727100917e+005 -8.888727106145e+005 -8.969660821844e+005 -8.969660820335e+005 -8.969660798638e+005 -8.969660811596e+005 -8.969660788581e+005 -8.969660784265e+005 -8.969660781467e+005 -8.969660770049e+005 -8.969660759104e+005 -9.049168627917e+005 -9.049168618006e+005 -9.049168627351e+005 -9.049168604582e+005 -9.049168601336e+005 -9.049168589810e+005 -9.049168587535e+005 -9.049168585592e+005 -9.049168574856e+005 -9.127354558360e+005 -9.127354574141e+005 -9.127354567771e+005 -9.127354565976e+005 -9.127354551659e+005 -9.127354547360e+005 -9.127354538799e+005 -9.127354524851e+005 -9.127354518103e+005 -9.204322350090e+005 -9.204322368888e+005 -9.204322376194e+005 -9.204322361545e+005 -9.204322345441e+005 -9.204322346469e+005 -9.204322330754e+005 -9.204322317258e+005 -9.204322315689e+005 -9.280175404538e+005 -9.280175427904e+005 -9.280175426439e+005 -9.280175426099e+005 -9.280175416382e+005 -9.280175398638e+005 -9.280175386738e+005 -9.280175383785e+005 -9.280175377026e+005 -9.355016931135e+005 -9.355016911716e+005 -9.355016920339e+005 -9.355016919684e+005 -9.355016916537e+005 -9.355016890937e+005 -9.355016880706e+005 -9.355016888696e+005 -9.355016885393e+005 -9.428949807368e+005 -9.428949801704e+005 -9.428949799337e+005 -9.428949798373e+005 -9.428949788685e+005 -9.428949766319e+005 -9.428949772770e+005 -9.428949766457e+005 -9.428949769767e+005 -9.502076812631e+005 -9.502076804856e+005 -9.502076804373e+005 -9.502076790079e+005 -9.502076788562e+005 -9.502076778119e+005 -9.502076775338e+005 -9.502076769436e+005 -9.502076776521e+005 -9.574500490717e+005 -9.574500481709e+005 -9.574500485415e+005 -9.574500481742e+005 -9.574500470393e+005 -9.574500469202e+005 -9.574500463001e+005 -9.574500462303e+005 -9.574500450369e+005 -9.646323243386e+005 -9.646323250094e+005 -9.646323257848e+005 -9.646323253242e+005 -9.646323245880e+005 -9.646323248885e+005 -9.646323242391e+005 -9.646323242732e+005 -9.646323240000e+005 -9.717647381632e+005 -9.717647389340e+005 -9.717647394774e+005 -9.717647388927e+005 -9.717647388472e+005 -9.717647390693e+005 -9.717647382536e+005 -9.717647387849e+005 -9.717647388549e+005 -9.788575069892e+005 -9.788575071031e+005 -9.788575074467e+005 -9.788575075723e+005 -9.788575064292e+005 -9.788575062689e+005 -9.788575065732e+005 -9.788575068389e+005 -9.788575066815e+005 -9.859208372627e+005 -9.859208380850e+005 -9.859208387169e+005 -9.859208386442e+005 -9.859208383396e+005 -9.859208376612e+005 -9.859208376611e+005 -9.859208378313e+005 -9.859208379435e+005 -9.929649355904e+005 -9.929649360223e+005 -9.929649362742e+005 -9.929649361241e+005 -9.929649362173e+005 -9.929649357582e+005 -9.929649357578e+005 -9.929649359217e+005 -9.929649357638e+005 -1.000000000000e+006 -1.000000000000e+006 -1.000000000000e+006 -1.000000000000e+006 -1.000000000000e+006 -1.000000000000e+006 -1.000000000000e+006 -1.000000000000e+006 -1.000000000000e+006 
        </DataArray>
        <DataArray type="Float64" Name="NONWET_PRESSURE" format="ascii">