<?xml version="1.0"?>
<VTKFile type="UnstructuredGrid" version="0.1" byte_order="LittleEndian">
  <UnstructuredGrid>
    <Piece NumberOfPoints="909" NumberOfCells="800">
      <Points>
        <DataArray type="Float64" NumberOfComponents="3" format="ascii">
          0.000000000000e+000 0.000000000000e+000 0.000000000000e+000
          2.000000000000e+000 0.000000000000e+000 0.000000000000e+000
          2.000000000000e+000 2.500000000000e+000 0.000000000000e+000
          0.000000000000e+000 2.500000000000e+000 0.000000000000e+000
          2.000000000000e+000 5.000000000000e+000 0.000000000000e+000
          0.000000000000e+000 5.000000000000e+000 0.000000000000e+000
          2.000000000000e+000 7.500000000000e+000 0.000000000000e+000
          0.000000000000e+000 7.500000000000e+000 0.000000000000e+000
          2.000000000000e+000 1.000000000000e+001 0.000000000000e+000
          0.000000000000e+000 1.000000000000e+001 0.000000000000e+000
          2.000000000000e+000 1.250000000000e+001 0.000000000000e+000
          0.000000000000e+000 1.250000000000e+001 0.000000000000e+000
          2.000000000000e+000 1.500000000000e+001 0.000000000000e+000
          0.000000000000e+000 1.500000000000e+001 0.000000000000e+000
          2.000000000000e+000 1.750000000000e+001 0.000000000000e+000
          0.000000000000e+000 1.750000000000e+001 0.000000000000e+000
          2.000000000000e+000 2.000000000000e+001 0.000000000000e+000
          0.000000000000e+000 2.000000000000e+001 0.000000000000e+000
          4.000000000000e+000 0.000000000000e+000 0.000000000000e+000
          4.000000000000e+000 2.500000000000e+000 0.000000000000e+000
          4.000000000000e+000 5.000000000000e+000 0.000000000000e+000
          4.000000000000e+000 7.500000000000e+000 0.000000000000e+000
          4.000000000000e+000 1.000000000000e+001 0.000000000000e+000
          4.000000000000e+000 1.250000000000e+001 0.000000000000e+000
          4.000000000000e+000 1.500000000000e+001 0.000000000000e+000
          4.000000000000e+000 1.750000000000e+001 0.000000000000e+000
          4.000000000000e+000 2.000000000000e+001 0.000000000000e+000
          6.000000000000e+000 0.000000000000e+000 0.000000000000e+000
          6.000000000000e+000 2.500000000000e+000 0.000000000000e+000
          6.000000000000e+000 5.000000000000e+000 0.000000000000e+000
          6.000000000000e+000 7.500000000000e+000 0.000000000000e+000
          6.000000000000e+000 1.000000000000e+001 0.000000000000e+000
          6.000000000000e+000 1.250000000000e+001 0.000000000000e+000
          6.000000000000e+000 1.500000000000e+001 0.000000000000e+000
          6.000000000000e+000 1.750000000000e+001 0.000000000000e+000
          6.000000000000e+000 2.000000000000e+001 0.000000000000e+000
          8.000000000000e+000 0.000000000000e+000 0.000000000000e+000
          8.000000000000e+000 2.500000000000e+000 0.000000000000e+000
          8.000000000000e+000 5.000000000000e+000 0.000000000000e+000
          8.000000000000e+000 7.500000000000e+000 0.000000000000e+000
          8.000000000000e+000 1.000000000000e+001 0.000000000000e+000
          8.000000000000e+000 1.250000000000e+001 0.000000000000e+000
          8.000000000000e+000 1.500000000000e+001 0.000000000000e+000
          8.000000000000e+000 1.750000000000e+001 0.000000000000e+000
          8.000000000000e+000 2.000000000000e+001 0.000000000000e+000
          1.000000000000e+001 0.000000000000e+000 0.000000000000e+000
          1.000000000000e+001 2.500000000000e+000 0.000000000000e+000
          1.000000000000e+001 5.000000000000e+000 0.000000000000e+000
          1.000000000000e+001 7.500000000000e+000 0.000000000000e+000
          1.000000000000e+001 1.000000000000e+001 0.000000000000e+000
          1.000000000000e+001 1.250000000000e+001 0.000000000000e+000
          1.000000000000e+001 1.500000000000e+001 0.000000000000e+000
          1.000000000000e+001 1.750000000000e+001 0.000000000000e+000
          1.000000000000e+001 2.000000000000e+001 0.000000000000e+000
          1.200000000000e+001 0.000000000000e+000 0.000000000000e+000
          1.200000000000e+001 2.500000000000e+000 0.000000000000e+000
          1.200000000000e+001 5.000000000000e+000 0.000000000000e+000
          1.200000000000e+001 7.500000000000e+000 0.000000000000e+000
          1.200000000000e+001 1.000000000000e+001 0.000000000000e+000
          1.200000000000e+001 1.250000000000e+001 0.000000000000e+000
          1.200000000000e+001 1.500000000000e+001 0.000000000000e+000
          1.200000000000e+001 1.750000000000e+001 0.000000000000e+000
          1.200000000000e+001 2.000000000000e+001 0.000000000000e+000
          1.400000000000e+001 0.000000000000e+000 0.000000000000e+000
          1.400000000000e+001 2.500000000000e+000 0.000000000000e+000
          1.400000000000e+001 5.000000000000e+000 0.000000000000e+000
          1.400000000000e+001 7.500000000000e+000 0.000000000000e+000
          1.400000000000e+001 1.000000000000e+001 0.000000000000e+000
          1.400000000000e+001 1.250000000000e+001 0.000000000000e+000
          1.400000000000e+001 1.500000000000e+001 0.000000000000e+000
          1.400000000000e+001 1.750000000000e+001 0.000000000000e+000
          1.400000000000e+001 2.000000000000e+001 0.000000000000e+000
          1.600000000000e+001 0.000000000000e+000 0.000000000000e+000
          1.600000000000e+001 2.500000000000e+000 0.000000000000e+000
          1.600000000000e+001 5.000000000000e+000 0.000000000000e+000
          1.600000000000e+001 7.500000000000e+000 0.000000000000e+000
          1.600000000000e+001 1.000000000000e+001 0.000000000000e+000
          1.600000000000e+001 1.250000000000e+001 0.000000000000e+000
          1.600000000000e+001 1.500000000000e+001 0.000000000000e+000
          1.600000000000e+001 1.750000000000e+001 0.000000000000e+000
          1.600000000000e+001 2.000000000000e+001 0.000000000000e+000
          1.800000000000e+001 0.000000000000e+000 0.000000000000e+000
          1.800000000000e+001 2.500000000000e+000 0.000000000000e+000
          1.800000000000e+001 5.000000000000e+000 0.000000000000e+000
          1.800000000000e+001 7.500000000000e+000 0.000000000000e+000
          1.800000000000e+001 1.000000000000e+001 0.000000000000e+000
          1.800000000000e+001 1.250000000000e+001 0.000000000000e+000
          1.800000000000e+001 1.500000000000e+001 0.000000000000e+000
          1.800000000000e+001 1.750000000000e+001 0.000000000000e+000
          1.800000000000e+001 2.000000000000e+001 0.000000000000e+000
          2.000000000000e+001 0.000000000000e+000 0.000000000000e+000
          2.000000000000e+001 2.500000000000e+000 0.000000000000e+000
          2.000000000000e+001 5.000000000000e+000 0.000000000000e+000
          2.000000000000e+001 7.500000000000e+000 0.000000000000e+000
          2.000000000000e+001 1.000000000000e+001 0.000000000000e+000
          2.000000000000e+001 1.250000000000e+001 0.000000000000e+000
          2.000000000000e+001 1.500000000000e+001 0.000000000000e+000
          2.000000000000e+001 1.750000000000e+001 0.000000000000e+000
          2.000000000000e+001 2.000000000000e+001 0.000000000000e+000
          2.200000000000e+001 0.000000000000e+000 0.000000000000e+000
          2.200000000000e+001 2.500000000000e+000 0.000000000000e+000
          2.200000000000e+001 5.000000000000e+000 0.000000000000e+000
          2.200000000000e+001 7.500000000000e+000 0.000000000000e+000
          2.200000000000e+001 1.000000000000e+001 0.000000000000e+000
          2.200000000000e+001 1.250000000000e+001 0.000000000000e+000
          2.200000000000e+001 1.500000000000e+001 0.000000000000e+000
          2.200000000000e+001 1.750000000000e+001 0.000000000000e+000
          2.200000000000e+001 2.000000000000e+001 0.000000000000e+000
          2.400000000000e+001 0.000000000000e+000 0.000000000000e+000
          2.400000000000e+001 2.500000000000e+000 0.000000000000e+000
          2.400000000000e+001 5.000000000000e+000 0.000000000000e+000
          2.400000000000e+001 7.500000000000e+000 0.000000000000e+000
          2.400000000000e+001 1.000000000000e+001 0.000000000000e+000
          2.400000000000e+001 1.250000000000e+001 0.000000000000e+000
          2.400000000000e+001 1.500000000000e+001 0.000000000000e+000
          2.400000000000e+001 1.750000000000e+001 0.000000000000e+000
          2.400000000000e+001 2.000000000000e+001 0.000000000000e+000
          2.600000000000e+001 0.000000000000e+000 0.000000000000e+000
          2.600000000000e+001 2.500000000000e+000 0.000000000000e+000
          2.600000000000e+001 5.000000000000e+000 0.000000000000e+000
          2.600000000000e+001 7.500000000000e+000 0.000000000000e+000
          2.600000000000e+001 1.000000000000e+001 0.000000000000e+000
          2.600000000000e+001 1.250000000000e+001 0.000000000000e+000
          2.600000000000e+001 1.500000000000e+001 0.000000000000e+000
          2.600000000000e+001 1.750000000000e+001 0.000000000000e+000
          2.600000000000e+001 2.000000000000e+001 0.000000000000e+000
          2.800000000000e+001 0.000000000000e+000 0.000000000000e+000
          2.800000000000e+001 2.500000000000e+000 0.000000000000e+000
          2.800000000000e+001 5.000000000000e+000 0.000000000000e+000
          2.800000000000e+001 7.500000000000e+000 0.000000000000e+000
          2.800000000000e+001 1.000000000000e+001 0.000000000000e+000
          2.800000000000e+001 1.250000000000e+001 0.000000000000e+000
          2.800000000000e+001 1.500000000000e+001 0.000000000000e+000
          2.800000000000e+001 1.750000000000e+001 0.000000000000e+000
          2.800000000000e+001 2.000000000000e+001 0.000000000000e+000
          3.000000000000e+001 0.000000000000e+000 0.000000000000e+000
          3.000000000000e+001 2.500000000000e+000 0.000000000000e+000
          3.000000000000e+001 5.000000000000e+000 0.000000000000e+000
          3.000000000000e+001 7.500000000000e+000 0.000000000000e+000
[...]
      <PointData Scalars="CAPILLARY_PRESSURE">
        <DataArray type="Float64" Name="CAPILLARY_PRESSURE" format="ascii">
          1.960851213935e+005 1.906210078693e+005 1.906210078693e+005 1.960851213935e+005 1.906210078693e+005 1.960851213935e+005 1.906210078693e+005 1.960851213935e+005 1.906210078693e+005 1.960851213935e+005 1.906210078693e+005 1.960851213935e+005 1.906210078693e+005 1.960851213935e+005 1.906210078693e+005 1.960851213935e+005 1.906210078693e+005 1.960851213935e+005 1.850357708544e+005 1.850357708544e+005 1.850357708544e+005 1.850357708544e+005 1.850357708544e+005 1.850357708544e+005 1.850357708544e+005 1.850357708544e+005 1.850357708544e+005 1.793082262631e+005 1.793082262631e+005 1.793082262631e+005 1.793082262631e+005 1.793082262631e+005 1.793082262631e+005 1.793082262631e+005 1.793082262631e+005 1.793082262631e+005 1.734149481956e+005 1.734149481956e+005 1.734149481956e+005 1.734149481956e+005 1.734149481956e+005 1.734149481956e+005 1.734149481956e+005 1.734149481956e+005 1.734149481956e+005 1.673299096194e+005 1.673299096194e+005 1.673299096194e+005 1.673299096194e+005 1.673299096194e+005 1.673299096194e+005 1.673299096194e+005 1.673299096194e+005 1.673299096194e+005 1.610220293778e+005 1.610220293779e+005 1.610220293779e+005 1.610220293779e+005 1.610220293779e+005 1.610220293780e+005 1.610220293780e+005 1.610220293780e+005 1.610220293780e+005 1.544532383780e+005 1.544532383780e+005 1.544532383780e+005 1.544532383781e+005 1.544532383781e+005 1.544532383782e+005 1.544532383783e+005 1.544532383784e+005 1.544532383784e+005 1.475763051231e+005 1.475763051232e+005 1.475763051233e+005 1.475763051234e+005 1.475763051235e+005 1.475763051236e+005 1.475763051238e+005 1.475763051239e+005 1.475763051239e+005 1.403316149388e+005 1.403316149389e+005 1.403316149390e+005 1.403316149392e+005 1.403316149395e+005 1.403316149397e+005 1.403316149399e+005 1.403316149401e+005 1.403316149401e+005 1.326423431325e+005 1.326423431324e+005 1.326423431327e+005 1.326423431329e+005 1.326423431332e+005 1.326423431337e+005 1.326423431342e+005 1.326423431342e+005 1.326423431344e+005 1.244071384231e+005 1.244071384236e+005 1.244071384241e+005 1.244071384249e+005 1.244071384253e+005 1.244071384252e+005 1.244071384249e+005 1.244071384251e+005 1.244071384250e+005 1.154884461195e+005 1.154884461196e+005 1.154884461203e+005 1.154884461209e+005 1.154884461214e+005 1.154884461210e+005 1.154884461203e+005 1.154884461199e+005 1.154884461201e+005 1.056922638996e+005 1.056922638983e+005 1.056922638976e+005 1.056922638951e+005 1.056922638953e+005 1.056922638994e+005 1.056922639049e+005 1.056922639029e+005 1.056922639015e+005 9.473160663590e+004 9.473160663952e+004 9.473160663586e+004 9.473160663984e+004 9.473160663998e+004 9.473160663941e+004 9.473160663068e+004 9.473160663794e+004 9.473160663887e+004 8.215907571421e+004 8.215907571151e+004 8.215907574264e+004 8.215907576685e+004 8.215907577824e+004 8.215907572909e+004 8.215907569654e+004 8.215907569016e+004 8.215907570890e+004 6.722528650131e+004 6.722528652271e+004 6.722528648064e+004 6.722528641471e+004 6.722528633327e+004 6.722528641046e+004 6.722528647797e+004 6.722528642606e+004 6.722528636979e+004 4.852359319521e+004 4.852359308183e+004 4.852359308886e+004 4.852359313555e+004 4.852359328084e+004 4.852359333815e+004 4.852359343976e+004 4.852359350823e+004 4.852359331826e+004 2.325978056229e+004 2.325978096338e+004 2.325978071632e+004 2.325978014318e+004 2.325977980100e+004 2.325977995582e+004 2.325977985601e+004 2.325977948052e+004 2.325978065507e+004 -1.037151538406e+004 -1.037151830418e+004 -1.037151743405e+004 -1.037151211571e+004 -1.037151074287e+004 -1.037151049253e+004 -1.037150943973e+004 -1.037150509393e+004 -1.037151753921e+004 -4.505062650037e+004 -4.505063274951e+004 -4.505062847734e+004 -4.505062737038e+004 -4.505062776327e+004 -4.505061773909e+004 -4.505061894461e+004 -4.505061638962e+004 -4.505062037698e+004 -7.889976391734e+004 -7.889976017574e+004 -7.889976142286e+004 -7.889975417118e+004 -7.889974891008e+004 -7.889973425487e+004 -7.889974529633e+004 -7.889974051106e+004 -7.889974196580e+004 -1.118691030312e+005 -1.118691035151e+005 -1.118690948859e+005 -1.118690862577e+005 -1.118690780233e+005 -1.118690730649e+005 -1.118690696992e+005 -1.118690685133e+005 -1.118690683794e+005 -1.439422510487e+005 -1.439422234657e+005 -1.439422257453e+005 -1.439422143484e+005 -1.439422007561e+005 -1.439421997591e+005 -1.439421932188e+005 -1.439421822618e+005 -1.439421912625e+005 -1.751314846932e+005 -1.751314763954e+005 -1.751314620339e+005 -1.751314563050e+005 -1.751314446064e+005 -1.751314411648e+005 -1.751314410036e+005 -1.751314335443e+005 -1.751314428860e+005 -2.054542884951e+005 -2.054542727133e+005 -2.054542661391e+005 -2.054542590616e+005 -2.054542442213e+005 -2.054542404225e+005 -2.054542360496e+005 -2.054542450822e+005 -2.054542489304e+005 -2.349265353456e+005 -2.349265392429e+005 -2.349265356196e+005 -2.349265232777e+005 -2.349265138452e+005 -2.349265056442e+005 -2.349265053891e+005 -2.349265156377e+005 -2.349265216742e+005 -2.635638915685e+005 -2.635638819074e+005 -2.635638732150e+005 -2.635638600208e+005 -2.635638561428e+005 -2.635638598942e+005 -2.635638566129e+005 -2.635638534024e+005 -2.635638497553e+005 -2.913818115909e+005 -2.913818067140e+005 -2.913817918182e+005 -2.913817892114e+005 -2.913817837037e+005 -2.913817847338e+005 -2.913817790476e+005 -2.913817810210e+005 -2.913817770030e+005 -3.183956123275e+005 -3.183956087962e+005 -3.183956033091e+005 -3.183956038694e+005 -3.183955943887e+005 -3.183956014672e+005 -3.183955926650e+005 -3.183955906426e+005 -3.183955918739e+005 -3.446203873829e+005 -3.446204023895e+005 -3.446203902846e+005 -3.446203915259e+005 -3.446203936197e+005 -3.446203881130e+005 -3.446203842197e+005 -3.446203800696e+005 -3.446203847681e+005 -3.700710445058e+005 -3.700710552775e+005 -3.700710590232e+005 -3.700710600189e+005 -3.700710701888e+005 -3.700710548044e+005 -3.700710511398e+005 -3.700710418454e+005 -3.700710449033e+005 -3.947623072861e+005 -3.947623225017e+005 -3.947623148075e+005 -3.947623266418e+005 -3.947623315046e+005 -3.947623343691e+005 -3.947623236958e+005 -3.947623168088e+005 -3.947623088636e+005 -4.187087762486e+005 -4.187087870773e+005 -4.187087901311e+005 -4.187087947848e+005 -4.187087973446e+005 -4.187088025338e+005 -4.187087871297e+005 -4.187087722136e+005 -4.187087754678e+005 -4.419249214080e+005 -4.419249284181e+005 -4.419249319534e+005 -4.419249398911e+005 -4.419249452956e+005 -4.419249274176e+005 -4.419249201932e+005 -4.419249187111e+005 -4.419249065518e+005 -4.644251225181e+005 -4.644251267996e+005 -4.644251148121e+005 -4.644251294523e+005 -4.644251305175e+005 -4.644251223532e+005 -4.644251041894e+005 -4.644251015496e+005 -4.644251088904e+005 -4.862236623679e+005 -4.862236470041e+005 -4.862236519612e+005 -4.862236547561e+005 -4.862236584753e+005 -4.862236389406e+005 -4.862236405829e+005 -4.862236279846e+005 -4.862236319070e+005 -5.073347081319e+005 -5.073347134019e+005 -5.073347166934e+005 -5.073347235742e+005 -5.073347186988e+005 -5.073347040869e+005 -5.073347020935e+005 -5.073346976049e+005 -5.073346897650e+005 -5.277724209208e+005 -5.277724268126e+005 -5.277724289040e+005 -5.277724328835e+005 -5.277724283754e+005 -5.277724132451e+005 -5.277724078399e+005 -5.277724046878e+005 -5.277724009656e+005 -5.475508229973e+005 -5.475508166196e+005 -5.475508260856e+005 -5.475508238467e+005 -5.475508157293e+005 -5.475508066278e+005 -5.475507913089e+005 -5.475507978782e+005 -5.475507919114e+005 -5.666838511120e+005 -5.666838441237e+005 -5.666838528323e+005 -5.666838502699e+005 -5.666838425331e+005 -5.666838325400e+005 -5.666838258734e+005 -5.666838163786e+005 -5.666838196329e+005 -5.851853963410e+005 -5.851853975196e+005 -5.851854021947e+005 -5.851853993256e+005 -5.851853956392e+005 -5.851853785962e+005 -5.851853713896e+005 -5.851853727600e+005 -5.851853634882e+005 -6.030692713232e+005 -6.030692797262e+005 -6.030692735896e+005 -6.030692688426e+005 -6.030692666432e+005 -6.030692554448e+005 -6.030692444929e+005 -6.030692403601e+005 -6.030692380715e+005 -6.203492107288e+005 -6.203491953144e+005 -6.203491987181e+005 -6.203491891786e+005 -6.203491887447e+005 -6.203491816560e+005 -6.203491827878e+005 -6.203491617504e+005 -6.203491683434e+005 -6.370388317616e+005 -6.370388365494e+005 -6.370388311150e+005 -6.370388220761e+005 -6.370388199180e+005 -6.370388196690e+005 -6.370388085306e+005 -6.370388027492e+005 -6.370387992190e+005 -6.531517418913e+005 -6.531517461047e+005 -6.531517492552e+005 -6.531517345479e+005 -6.531517266146e+005 -6.531517271927e+005 -6.531517197196e+005 -6.531517159023e+005 -6.531517074156e+005 -6.687014211459e+005 -6.687014234860e+005 -6.687014200971e+005 -6.687014144924e+005 -6.687014068794e+005 -6.687013977881e+005 -6.687013920254e+005 -6.687013891685e+005 -6.687013910199e+005 -6.837012670868e+005 -6.837012609339e+005 -6.837012578718e+005 -6.837012494046e+005 -6.837012434904e+005 -6.837012329546e+005 -6.837012294301e+005 -6.837012236999e+005 -6.837012213528e+005 -6.981645632544e+005 -6.981645601842e+005 -6.981645535362e+005 -6.981645471376e+005 -6.981645360383e+005 -6.981645291452e+005 -6.981645276523e+005 -6.981645211462e+005 -6.981645177852e+005 -7.121045247128e+005 -7.121045227450e+005 -7.121045167016e+005 -7.121045079238e+005 -7.121045003259e+005 -7.121044949062e+005 -7.121044879144e+005 -7.121044850009e+005 -7.121044793549e+005 -7.255342554333e+005 -7.255342506717e+005 -7.255342480152e+005 -7.255342424539e+005 -7.255342360271e+005 -7.255342260702e+005 -7.255342193092e+005 -7.255342146334e+005 -7.255342149872e+005 -7.384667551047e+005 -7.384667528869e+005 -7.384667498084e+005 -7.384667451061e+005 -7.384667379422e+005 -7.384667275579e+005 -7.384667232228e+005 -7.384667174162e+005 -7.384667163469e+005 -7.509149145037e+005 -7.509149136541e+005 -7.509149111623e+005 -7.509149066256e+005 -7.509149013645e+005 -7.509148944460e+005 -7.509148906049e+005 -7.509148828575e+005 -7.509148867216e+005 -7.628915144282e+005 -7.628915099476e+005 -7.628915093980e+005 -7.628915078469e+005 -7.628915062964e+005 -7.628914987648e+005 -7.628914948675e+005 -7.628914920597e+005 -7.628914909547e+005 -7.744092146704e+005 -7.744092221266e+005 -7.744092187393e+005 -7.744092156076e+005 -7.744092149355e+005 -7.744092132203e+005 -7.744092073551e+005 -7.744092029807e+005 -7.744092010931e+005 -7.854805823766e+005 -7.854805848460e+005 -7.854805839184e+005 -7.854805783579e+005 -7.854805760244e+005 -7.854805743164e+005 -7.854805705551e+005 -7.854805709473e+005 -7.854805677541e+005 -7.961180263157e+005 -7.961180255938e+005 -7.961180239944e+005 -7.961180212731e+005 -7.961180196963e+005 -7.961180188262e+005 -7.961180149023e+005 -7.961180186636e+005 -7.961180152141e+005 -8.063338490887e+005 -8.063338497852e+005 -8.063338478637e+005 -8.063338441352e+005 -8.063338431198e+005 -8.063338437913e+005 -8.063338403648e+005 -8.063338410422e+005 -8.063338389171e+005 -8.161402276397e+005 -8.161402280050e+005 -8.161402260281e+005 -8.161402254355e+005 -8.161402232983e+005 -8.161402241576e+005 -8.161402226481e+005 -8.161402215690e+005 -8.161402236527e+005 -8.255492077902e+005 -8.255492091493e+005 -8.255492105682e+005 -8.255492103113e+005 -8.255492122055e+005 -8.255492081997e+005 -8.255492072502e+005 -8.255492082935e+005 -8.255492100342e+005 -8.345727143279e+005 -8.345727150448e+005 -8.345727187892e+005 -8.345727188942e+005 -8.345727175721e+005 -8.345727138802e+005 -8.345727152785e+005 -8.345727165086e+005 -8.345727176391e+005 -8.432225313069e+005 -8.432225346953e+005 -8.432225349100e+005 -8.432225342930e+005 -8.432225312805e+005 -8.432225320871e+005 -8.432225340390e+005 -8.432225313646e+005 -8.432225322169e+005 -8.515103071820e+005 -8.515103075156e+005 -8.515103073924e+005 -8.515103068715e+005 -8.515103059390e+005 -8.515103041773e+005 -8.515103066667e+005 -8.515103049972e+005 -8.515103046934e+005 -8.594475566380e+005 -8.594475536184e+005 -8.594475552948e+005 -8.594475542852e+005 -8.594475514488e+005 -8.594475526804e+005 -8.594475542779e+005 -8.594475536579e+005 -8.594475535025e+005 -8.670456543811e+005 -8.670456556929e+005 -8.670456557529e+005 -8.670456564445e+005 -8.670456528571e+005 -8.670456528341e+005 -8.670456560968e+005 -8.670456554772e+005 -8.670456539535e+005 -8.743158549494e+005 -8.743158560243e+005 -8.743158553232e+005 -8.743158540652e+005 -8.743158524983e+005 -8.743158534515e+005 -8.743158563063e+005 -8.743158559144e+005 -8.743158534253e+005 -8.812692552433e+005 -8.812692562175e+005 -8.812692560095e+005 -8.812692565931e+005 -8.812692536652e+005 -8.812692550716e+005 -8.812692571717e+005 -8.812692561764e+005 -8.812692545054e+005 -8.879168263377e+005 -8.879168273324e+005 -8.879168286231e+005 -8.879168259787e+005 -8.879168262002e+005 -8.879168272946e+005 -8.879168276097e+005 -8.879168285988e+005 -8.879168251817e+005 -8.942693977001e+005 -8.942693985970e+005 -8.942693981592e+005 -8.942693961753e+005 -8.942693981864e+005 -8.942693977254e+005 -8.942693968577e+005 -8.942693971158e+005 -8.942693965029e+005 -9.003376641448e+005 -9.003376633731e+005 -9.003376629415e+005 -9.003376625718e+005 -9.003376596763e+005 -9.003376597897e+005 -9.003376623015e+005 -9.003376609747e+005 -9.003376607418e+005 -9.061321783120e+005 -9.061321758293e+005 -9.061321755973e+005 -9.061321737889e+005 -9.061321720753e+005 -9.061321724477e+005 -9.061321748586e+005 -9.061321736449e+005 -9.061321746030e+005 -9.116633572924e+005 -9.116633565339e+005 -9.116633565204e+005 -9.116633556898e+005 -9.116633549108e+005 -9.116633548121e+005 -9.116633560283e+005 -9.116633564065e+005 -9.116633561584e+005 -9.169414883247e+005 -9.169414905112e+005 -9.169414910106e+005 -9.169414917209e+005 -9.169414903011e+005 -9.169414910582e+005 -9.169414923556e+005 -9.169414910624e+005 -9.169414902721e+005 -9.219767294412e+005 -9.219767273406e+005 -9.219767299134e+005 -9.219767300624e+005 -9.219767287678e+005 -9.219767311220e+005 -9.219767297095e+005 -9.219767299397e+005 -9.219767293999e+005 -9.267790897648e+005 -9.267790884013e+005 -9.267790882249e+005 -9.267790879725e+005 -9.267790876075e+005 -9.267790894476e+005 -9.267790891048e+005 -9.267790896199e+005 -9.267790877134e+005 -9.313584516686e+005 -9.313584549971e+005 -9.313584554497e+005 -9.313584552382e+005 -9.313584546128e+005 -9.313584562175e+005 -9.313584559084e+005 -9.313584560660e+005 -9.313584566580e+005 -9.357245862891e+005 -9.357245897089e+005 -9.357245887833e+005 -9.357245888148e+005 -9.357245917967e+005 -9.357245898553e+005 -9.357245912144e+005 -9.357245912432e+005 -9.357245915354e+005 -9.398871245347e+005 -9.398871260781e+005 -9.398871265130e+005 -9.398871254669e+005 -9.398871268217e+005 -9.398871272598e+005 -9.398871284029e+005 -9.398871269511e+005 -9.398871271865e+005 -9.438555762835e+005 -9.438555751518e+005 -9.438555753449e+005 -9.438555766492e+005 -9.438555752789e+005 -9.438555761024e+005 -9.438555762071e+005 -9.438555757626e+005 -9.438555753314e+005 -9.476393276996e+005 -9.476393288586e+005 -9.476393272678e+005 -9.476393278757e+005 -9.476393276950e+005 -9.476393284568e+005 -9.476393285382e+005 -9.476393274558e+005 -9.476393286866e+005 -9.512476590452e+005 -9.512476561189e+005 -9.512476554510e+005 -9.512476569250e+005 -9.512476560450e+005 -9.512476552914e+005 -9.512476559064e+005 -9.512476553697e+005 -9.512476567528e+005 -9.546897237243e+005 -9.546897207006e+005 -9.546897192234e+005 -9.546897205750e+005 -9.546897207128e+005 -9.546897210270e+005 -9.546897208498e+005 -9.546897213285e+005 -9.546897192510e+005 -9.579745740805e+005 -9.579745730289e+005 -9.579745717095e+005 -9.579745725704e+005 -9.579745731505e+005 -9.579745729772e+005 -9.579745731487e+005 -9.579745719031e+005 -9.579745718924e+005 -9.611111598002e+005 -9.611111578722e+005 -9.611111566854e+005 -9.611111570311e+005 -9.611111565574e+005 -9.611111550755e+005 -9.611111568391e+005 -9.611111562747e+005 -9.611111557448e+005 -9.641083210048e+005 -9.641083181412e+005 -9.641083174541e+005 -9.641083156135e+005 -9.641083157088e+005 -9.641083154432e+005 -9.641083157074e+005 -9.641083143847e+005 -9.641083136631e+005 -9.669748008084e+005 -9.669747998740e+005 -9.669747988410e+005 -9.669747974717e+005 -9.669747968721e+005 -9.669747959880e+005 -9.669747960953e+005 -9.669747947029e+005 -9.669747952257e+005 -9.697192566081e+005 -9.697192564572e+005 -9.697192542875e+005 -9.697192555833e+005 -9.697192532818e+005 -9.697192528502e+005 -9.697192525705e+005 -9.697192514286e+005 -9.697192503342e+005 -9.723502542909e+005 -9.723502532997e+005 -9.723502542343e+005 -9.723502519574e+005 -9.723502516327e+005 -9.723502504801e+005 -9.723502502526e+005 -9.723502500583e+005 -9.723502489847e+005 -9.748762755143e+005 -9.748762770924e+005 -9.748762764554e+005 -9.748762762759e+005 -9.748762748442e+005 -9.748762744143e+005 -9.748762735582e+005 -9.748762721634e+005 -9.748762714886e+005 -9.773057304673e+005 -9.773057323471e+005 -9.773057330777e+005 -9.773057316128e+005 -9.773057300024e+005 -9.773057301051e+005 -9.773057285337e+005 -9.773057271841e+005 -9.773057270272e+005 -9.796469514430e+005 -9.796469537796e+005 -9.796469536330e+005 -9.796469535991e+005 -9.796469526274e+005 -9.796469508530e+005 -9.796469496629e+005 -9.796469493677e+005 -9.796469486917e+005 -9.819082103344e+005 -9.819082083926e+005 -9.819082092548e+005 -9.819082091894e+005 -9.819082088747e+005 -9.819082063147e+005 -9.819082052916e+005 -9.819082060906e+005 -9.819082057603e+005 -9.840977079277e+005 -9.840977073613e+005 -9.840977071246e+005 -9.840977070282e+005 -9.840977060593e+005 -9.840977038228e+005 -9.840977044679e+005 -9.840977038366e+005 -9.840977041676e+005 -9.862236007013e+005 -9.862235999238e+005 -9.862235998755e+005 -9.862235984461e+005 -9.862235982944e+005 -9.862235972501e+005 -9.862235969720e+005 -9.862235963818e+005 -9.862235970903e+005 -9.882939906070e+005 -9.882939897061e+005 -9.882939900768e+005 -9.882939897095e+005 -9.882939885745e+005 -9.882939884555e+005 -9.882939878353e+005 -9.882939877656e+005 -9.882939865722e+005 -9.903169380615e+005 -9.903169387323e+005 -9.903169395077e+005 -9.903169390471e+005 -9.903169383109e+005 -9.903169386113e+005 -9.903169379619e+005 -9.903169379961e+005 -9.903169377229e+005 -9.923004708119e+005 -9.923004715826e+005 -9.923004721260e+005 -9.923004715413e+005 -9.923004714958e+005 -9.923004717179e+005 -9.923004709022e+005 -9.923004714335e+005 -9.923004715036e+005 -9.942525822177e+005 -9.942525823316e+005 -9.942525826752e+005 -9.942525828008e+005 -9.942525816577e+005 -9.942525814974e+005 -9.942525818017e+005 -9.942525820674e+005 -9.942525819100e+005 -9.961812398443e+005 -9.961812406666e+005 -9.961812412985e+005 -9.961812412258e+005 -9.961812409212e+005 -9.961812402428e+005 -9.961812402427e+005 -9.961812404129e+005 -9.961812405251e+005 -9.980943994571e+005 -9.980943998890e+005 -9.980944001408e+005 -9.980943999907e+005 -9.980944000839e+005 -9.980943996248e+005 -9.980943996245e+005 -9.980943997883e+005 -9.980943996304e+005 -1.000000000000e+006 -1.000000000000e+006 -1.000000000000e+006 -1.000000000000e+006 -1.000000000000e+006 -1.000000000000e+006 -1.000000000000e+006 -1.000000000000e+006 -1.000000000000e+006 
        </DataArray>
        <DataArray type="Float64" Name="NONWET_PRESSURE" format="ascii">