<?xml version="1.0"?>
<VTKFile type="UnstructuredGrid" version="0.1" byte_order="LittleEndian">
  <UnstructuredGrid>
    <Piece NumberOfPoints="909" NumberOfCells="800">
      <Points>
        <DataArray type="Float64" NumberOfComponents="3" format="ascii">
          0.000000000000e+000 0.000000000000e+000 0.000000000000e+000
          2.000000000000e+000 0.000000000000e+000 0.000000000000e+000
          2.000000000000e+000 2.500000000000e+000 0.000000000000e+000
          0.000000000000e+000 2.500000000000e+000 0.000000000000e+000
          2.000000000000e+000 5.000000000000e+000 0.000000000000e+000
          0.000000000000e+000 5.000000000000e+000 0.000000000000e+000
          2.000000000000e+000 7.500000000000e+000 0.000000000000e+000
          0.000000000000e+000 7.500000000000e+000 0.000000000000e+000
          2.000000000000e+000 1.000000000000e+001 0.000000000000e+000
          0.000000000000e+000 1.000000000000e+001 0.000000000000e+000
          2.000000000000e+000 1.250000000000e+001 0.000000000000e+000
          0.000000000000e+000 1.250000000000e+001 0.000000000000e+000
          2.000000000000e+000 1.500000000000e+001 0.000000000000e+000
          0.000000000000e+000 1.500000000000e+001 0.000000000000e+000
          2.000000000000e+000 1.750000000000e+001 0.000000000000e+000
          0.000000000000e+000 1.750000000000e+001 0.000000000000e+000
          2.000000000000e+000 2.000000000000e+001 0.000000000000e+000
          0.000000000000e+000 2.000000000000e+001 0.000000000000e+000
          4.000000000000e+000 0.000000000000e+000 0.000000000000e+000
          4.000000000000e+000 2.500000000000e+000 0.000000000000e+000
          4.000000000000e+000 5.000000000000e+000 0.000000000000e+000
          4.000000000000e+000 7.500000000000e+000 0.000000000000e+000
          4.000000000000e+000 1.000000000000e+001 0.000000000000e+000
          4.000000000000e+000 1.250000000000e+001 0.000000000000e+000
          4.000000000000e+000 1.500000000000e+001 0.000000000000e+000
          4.000000000000e+000 1.750000000000e+001 0.000000000000e+000
          4.000000000000e+000 2.000000000000e+001 0.000000000000e+000
          6.000000000000e+000 0.000000000000e+000 0.000000000000e+000
          6.000000000000e+000 2.500000000000e+000 0.000000000000e+000
          6.000000000000e+000 5.000000000000e+000 0.000000000000e+000
          6.000000000000e+000 7.500000000000e+000 0.000000000000e+000
          6.000000000000e+000 1.000000000000e+001 0.000000000000e+000
          6.000000000000e+000 1.250000000000e+001 0.000000000000e+000
          6.000000000000e+000 1.500000000000e+001 0.000000000000e+000
          6.000000000000e+000 1.750000000000e+001 0.000000000000e+000
          6.000000000000e+000 2.000000000000e+001 0.000000000000e+000
          8.000000000000e+000 0.000000000000e+000 0.000000000000e+000
          8.000000000000e+000 2.500000000000e+000 0.000000000000e+000
          8.000000000000e+000 5.000000000000e+000 0.000000000000e+000
          8.000000000000e+000 7.500000000000e+000 0.000000000000e+000
          8.000000000000e+000 1.000000000000e+001 0.000000000000e+000
          8.000000000000e+000 1.250000000000e+001 0.000000000000e+000
          8.000000000000e+000 1.500000000000e+001 0.000000000000e+000
          8.000000000000e+000 1.750000000000e+001 0.000000000000e+000
          8.000000000000e+000 2.000000000000e+001 0.000000000000e+000
          1.000000000000e+001 0.000000000000e+000 0.000000000000e+000
          1.000000000000e+001 2.500000000000e+000 0.000000000000e+000
          1.000000000000e+001 5.000000000000e+000 0.000000000000e+000
          1.000000000000e+001 7.500000000000e+000 0.000000000000e+000
          1.000000000000e+001 1.000000000000e+001 0.000000000000e+000
          1.000000000000e+001 1.250000000000e+001 0.000000000000e+000
          1.000000000000e+001 1.500000000000e+001 0.000000000000e+000
          1.000000000000e+001 1.750000000000e+001 0.000000000000e+000
          1.000000000000e+001 2.000000000000e+001 0.000000000000e+000
          1.200000000000e+001 0.000000000000e+000 0.000000000000e+000
          1.200000000000e+001 2.500000000000e+000 0.000000000000e+000
          1.200000000000e+001 5.000000000000e+000 0.000000000000e+000
          1.200000000000e+001 7.500000000000e+000 0.000000000000e+000
          1.200000000000e+001 1.000000000000e+001 0.000000000000e+000
          1.200000000000e+001 1.250000000000e+001 0.000000000000e+000
          1.200000000000e+001 1.500000000000e+001 0.000000000000e+000
          1.200000000000e+001 1.750000000000e+001 0.000000000000e+000
          1.200000000000e+001 2.000000000000e+001 0.000000000000e+000
          1.400000000000e+001 0.000000000000e+000 0.000000000000e+000
          1.400000000000e+001 2.500000000000e+000 0.000000000000e+000
          1.400000000000e+001 5.000000000000e+000 0.000000000000e+000
          1.400000000000e+001 7.500000000000e+000 0.000000000000e+000
          1.400000000000e+001 1.000000000000e+001 0.000000000000e+000
          1.400000000000e+001 1.250000000000e+001 0.000000000000e+000
          1.400000000000e+001 1.500000000000e+001 0.000000000000e+000
          1.400000000000e+001 1.750000000000e+001 0.000000000000e+000
          1.400000000000e+001 2.000000000000e+001 0.000000000000e+000
          1.600000000000e+001 0.000000000000e+000 0.000000000000e+000
          1.600000000000e+001 2.500000000000e+000 0.000000000000e+000
          1.600000000000e+001 5.000000000000e+000 0.000000000000e+000
          1.600000000000e+001 7.500000000000e+000 0.000000000000e+000
          1.600000000000e+001 1.000000000000e+001 0.000000000000e+000
          1.600000000000e+001 1.250000000000e+001 0.000000000000e+000
          1.600000000000e+001 1.500000000000e+001 0.000000000000e+000
          1.600000000000e+001 1.750000000000e+001 0.000000000000e+000
          1.600000000000e+001 2.000000000000e+001 0.000000000000e+000
          1.800000000000e+001 0.000000000000e+000 0.000000000000e+000
          1.800000000000e+001 2.500000000000e+000 0.000000000000e+000
          1.800000000000e+001 5.000000000000e+000 0.000000000000e+000
          1.800000000000e+001 7.500000000000e+000 0.000000000000e+000
          1.800000000000e+001 1.000000000000e+001 0.000000000000e+000
          1.800000000000e+001 1.250000000000e+001 0.000000000000e+000
          1.800000000000e+001 1.500000000000e+001 0.000000000000e+000
          1.800000000000e+001 1.750000000000e+001 0.000000000000e+000
          1.800000000000e+001 2.000000000000e+001 0.000000000000e+000
          2.000000000000e+001 0.000000000000e+000 0.000000000000e+000
          2.000000000000e+001 2.500000000000e+000 0.000000000000e+000
          2.000000000000e+001 5.000000000000e+000 0.000000000000e+000
          2.000000000000e+001 7.500000000000e+000 0.000000000000e+000
          2.000000000000e+001 1.000000000000e+001 0.000000000000e+000
          2.000000000000e+001 1.250000000000e+001 0.000000000000e+000
          2.000000000000e+001 1.500000000000e+001 0.000000000000e+000
          2.000000000000e+001 1.750000000000e+001 0.000000000000e+000
          2.000000000000e+001 2.000000000000e+001 0.000000000000e+000
          2.200000000000e+001 0.000000000000e+000 0.000000000000e+000
          2.200000000000e+001 2.500000000000e+000 0.000000000000e+000
          2.200000000000e+001 5.000000000000e+000 0.000000000000e+000
          2.200000000000e+001 7.500000000000e+000 0.000000000000e+000
          2.200000000000e+001 1.000000000000e+001 0.000000000000e+000
          2.200000000000e+001 1.250000000000e+001 0.000000000000e+000
          2.200000000000e+001 1.500000000000e+001 0.000000000000e+000
          2.200000000000e+001 1.750000000000e+001 0.000000000000e+000
          2.200000000000e+001 2.000000000000e+001 0.000000000000e+000
          2.400000000000e+001 0.000000000000e+000 0.000000000000e+000
          2.400000000000e+001 2.500000000000e+000 0.000000000000e+000
          2.400000000000e+001 5.000000000000e+000 0.000000000000e+000
          2.400000000000e+001 7.500000000000e+000 0.000000000000e+000
          2.400000000000e+001 1.000000000000e+001 0.000000000000e+000
          2.400000000000e+001 1.250000000000e+001 0.000000000000e+000
          2.400000000000e+001 1.500000000000e+001 0.000000000000e+000
          2.400000000000e+001 1.750000000000e+001 0.000000000000e+000
          2.400000000000e+001 2.000000000000e+001 0.000000000000e+000
          2.600000000000e+001 0.000000000000e+000 0.000000000000e+000
          2.600000000000e+001 2.500000000000e+000 0.000000000000e+000
          2.600000000000e+001 5.000000000000e+000 0.000000000000e+000
          2.600000000000e+001 7.500000000000e+000 0.000000000000e+000
          2.600000000000e+001 1.000000000000e+001 0.000000000000e+000
          2.600000000000e+001 1.250000000000e+001 0.000000000000e+000
          2.600000000000e+001 1.500000000000e+001 0.000000000000e+000
          2.600000000000e+001 1.750000000000e+001 0.000000000000e+000
          2.600000000000e+001 2.000000000000e+001 0.000000000000e+000
          2.800000000000e+001 0.000000000000e+000 0.000000000000e+000
          2.800000000000e+001 2.500000000000e+000 0.000000000000e+000
          2.800000000000e+001 5.000000000000e+000 0.000000000000e+000
          2.800000000000e+001 7.500000000000e+000 0.000000000000e+000
          2.800000000000e+001 1.000000000000e+001 0.000000000000e+000
          2.800000000000e+001 1.250000000000e+001 0.000000000000e+000
          2.800000000000e+001 1.500000000000e+001 0.000000000000e+000
          2.800000000000e+001 1.750000000000e+001 0.000000000000e+000
          2.800000000000e+001 2.000000000000e+001 0.000000000000e+000
          3.000000000000e+001 0.000000000000e+000 0.000000000000e+000
          3.000000000000e+001 2.500000000000e+000 0.000000000000e+000
          3.000000000000e+001 5.000000000000e+000 0.000000000000e+000
          3.000000000000e+001 7.500000000000e+000 0.000000000000e+000
[...]
      <PointData Scalars="CAPILLARY_PRESSURE">
        <DataArray type="Float64" Name="CAPILLARY_PRESSURE" format="ascii">
          3.451277433324e+005 3.430336387429e+005 3.430336387429e+005 3.451277433324e+005 3.430336387429e+005 3.451277433324e+005 3.430336387429e+005 3.451277433324e+005 3.430336387429e+005 3.451277433324e+005 3.430336387429e+005 3.451277433324e+005 3.430336387429e+005 3.451277433324e+005 3.430336387429e+005 3.451277433324e+005 3.430336387429e+005 3.451277433324e+005 3.409432892683e+005 3.409432892683e+005 3.409432892683e+005 3.409432892683e+005 3.409432892683e+005 3.409432892683e+005 3.409432892683e+005 3.409432892683e+005 3.409432892683e+005 3.388563738266e+005 3.388563738266e+005 3.388563738266e+005 3.388563738266e+005 3.388563738266e+005 3.388563738266e+005 3.388563738266e+005 3.388563738266e+005 3.388563738266e+005 3.367725325148e+005 3.367725325148e+005 3.367725325148e+005 3.367725325148e+005 3.367725325148e+005 3.367725325148e+005 3.367725325148e+005 3.367725325148e+005 3.367725325148e+005 3.346913847788e+005 3.346913847788e+005 3.346913847788e+005 3.346913847788e+005 3.346913847788e+005 3.346913847788e+005 3.346913847788e+005 3.346913847788e+005 3.346913847788e+005 3.326125225919e+005 3.326125225919e+005 3.326125225919e+005 3.326125225919e+005 3.326125225919e+005 3.326125225919e+005 3.326125225919e+005 3.326125225919e+005 3.326125225919e+005 3.305355111734e+005 3.305355111734e+005 3.305355111734e+005 3.305355111734e+005 3.305355111734e+005 3.305355111734e+005 3.305355111734e+005 3.305355111734e+005 3.305355111734e+005 3.284598899019e+005 3.284598899019e+005 3.284598899019e+005 3.284598899019e+005 3.284598899019e+005 3.284598899019e+005 3.284598899019e+005 3.284598899019e+005 3.284598899019e+005 3.263851721514e+005 3.263851721514e+005 3.263851721514e+005 3.263851721514e+005 3.263851721514e+005 3.263851721514e+005 3.263851721514e+005 3.263851721514e+005 3.263851721514e+005 3.243108451540e+005 3.243108451540e+005 3.243108451540e+005 3.243108451540e+005 3.243108451540e+005 3.243108451540e+005 3.243108451540e+005 3.243108451540e+005 3.243108451540e+005 3.222363699575e+005 3.222363699575e+005 3.222363699575e+005 3.222363699575e+005 3.222363699575e+005 3.222363699575e+005 3.222363699575e+005 3.222363699575e+005 3.222363699575e+005 3.201611811082e+005 3.201611811082e+005 3.201611811082e+005 3.201611811082e+005 3.201611811082e+005 3.201611811082e+005 3.201611811082e+005 3.201611811082e+005 3.201611811082e+005 3.180846861192e+005 3.180846861192e+005 3.180846861192e+005 3.180846861192e+005 3.180846861192e+005 3.180846861192e+005 3.180846861192e+005 3.180846861192e+005 3.180846861192e+005 3.160062647790e+005 3.160062647790e+005 3.160062647790e+005 3.160062647790e+005 3.160062647790e+005 3.160062647790e+005 3.160062647790e+005 3.160062647790e+005 3.160062647790e+005 3.139252682500e+005 3.139252682500e+005 3.139252682500e+005 3.139252682500e+005 3.139252682500e+005 3.139252682500e+005 3.139252682500e+005 3.139252682500e+005 3.139252682500e+005 3.118410179373e+005 3.118410179373e+005 3.118410179373e+005 3.118410179373e+005 3.118410179373e+005 3.118410179373e+005 3.118410179373e+005 3.118410179373e+005 3.118410179373e+005 3.097528041380e+005 3.097528041380e+005 3.097528041380e+005 3.097528041380e+005 3.097528041380e+005 3.097528041380e+005 3.097528041380e+005 3.097528041380e+005 3.097528041380e+005 3.076598844903e+005 3.076598844903e+005 3.076598844903e+005 3.076598844903e+005 3.076598844903e+005 3.076598844903e+005 3.076598844903e+005 3.076598844903e+005 3.076598844903e+005 3.055614822400e+005 3.055614822400e+005 3.055614822400e+005 3.055614822400e+005 3.055614822400e+005 3.055614822400e+005 3.055614822400e+005 3.055614822400e+005 3.055614822400e+005 3.034567843329e+005 3.034567843329e+005 3.034567843329e+005 3.034567843329e+005 3.034567843329e+005 3.034567843329e+005 3.034567843329e+005 3.034567843329e+005 3.034567843329e+005 3.013449393317e+005 3.013449393317e+005 3.013449393317e+005 3.013449393317e+005 3.013449393317e+005 3.013449393317e+005 3.013449393317e+005 3.013449393317e+005 3.013449393317e+005 2.992250551524e+005 2.992250551524e+005 2.992250551524e+005 2.992250551524e+005 2.992250551524e+005 2.992250551524e+005 2.992250551524e+005 2.992250551524e+005 2.992250551524e+005 2.970961966060e+005 2.970961966060e+005 2.970961966060e+005 2.970961966060e+005 2.970961966060e+005 2.970961966060e+005 2.970961966060e+005 2.970961966060e+005 2.970961966060e+005 2.949573827309e+005 2.949573827309e+005 2.949573827309e+005 2.949573827309e+005 2.949573827309e+005 2.949573827309e+005 2.949573827309e+005 2.949573827309e+005 2.949573827309e+005 2.928075838939e+005 2.928075838939e+005 2.928075838939e+005 2.928075838939e+005 2.928075838939e+005 2.928075838939e+005 2.928075838939e+005 2.928075838939e+005 2.928075838939e+005 2.906457186372e+005 2.906457186372e+005 2.906457186372e+005 2.906457186372e+005 2.906457186372e+005 2.906457186372e+005 2.906457186372e+005 2.906457186372e+005 2.906457186372e+005 2.884706502438e+005 2.884706502438e+005 2.884706502438e+005 2.884706502438e+005 2.884706502438e+005 2.884706502438e+005 2.884706502438e+005 2.884706502438e+005 2.884706502438e+005 2.862811829882e+005 2.862811829882e+005 2.862811829882e+005 2.862811829882e+005 2.862811829882e+005 2.862811829882e+005 2.862811829882e+005 2.862811829882e+005 2.862811829882e+005 2.840760580375e+005 2.840760580375e+005 2.840760580375e+005 2.840760580375e+005 2.840760580375e+005 2.840760580375e+005 2.840760580375e+005 2.840760580375e+005 2.840760580375e+005 2.818539489606e+005 2.818539489606e+005 2.818539489606e+005 2.818539489606e+005 2.818539489606e+005 2.818539489606e+005 2.818539489606e+005 2.818539489606e+005 2.818539489606e+005 2.796134567978e+005 2.796134567978e+005 2.796134567978e+005 2.796134567978e+005 2.796134567978e+005 2.796134567978e+005 2.796134567978e+005 2.796134567978e+005 2.796134567978e+005 2.773531046375e+005 2.773531046375e+005 2.773531046375e+005 2.773531046375e+005 2.773531046375e+005 2.773531046375e+005 2.773531046375e+005 2.773531046375e+005 2.773531046375e+005 2.750713316382e+005 2.750713316382e+005 2.750713316382e+005 2.750713316382e+005 2.750713316382e+005 2.750713316382e+005 2.750713316382e+005 2.750713316382e+005 2.750713316382e+005 2.727664864237e+005 2.727664864237e+005 2.727664864237e+005 2.727664864237e+005 2.727664864237e+005 2.727664864237e+005 2.727664864237e+005 2.727664864237e+005 2.727664864237e+005 2.704368197724e+005 2.704368197724e+005 2.704368197724e+005 2.704368197724e+005 2.704368197724e+005 2.704368197724e+005 2.704368197724e+005 2.704368197724e+005 2.704368197724e+005 2.680804765035e+005 2.680804765035e+005 2.680804765035e+005 2.680804765035e+005 2.680804765035e+005 2.680804765035e+005 2.680804765035e+005 2.680804765035e+005 2.680804765035e+005 2.656954864542e+005 2.656954864542e+005 2.656954864542e+005 2.656954864542e+005 2.656954864542e+005 2.656954864542e+005 2.656954864542e+005 2.656954864542e+005 2.656954864542e+005 2.632797544195e+005 2.632797544195e+005 2.632797544195e+005 2.632797544195e+005 2.632797544195e+005 2.632797544195e+005 2.632797544195e+005 2.632797544195e+005 2.632797544195e+005 2.608310489068e+005 2.608310489068e+005 2.608310489068e+005 2.608310489068e+005 2.608310489068e+005 2.608310489068e+005 2.608310489068e+005 2.608310489068e+005 2.608310489068e+005 2.583469895323e+005 2.583469895323e+005 2.583469895323e+005 2.583469895323e+005 2.583469895323e+005 2.583469895323e+005 2.583469895323e+005 2.583469895323e+005 2.583469895323e+005 2.558250328542e+005 2.558250328542e+005 2.558250328542e+005 2.558250328542e+005 2.558250328542e+005 2.558250328542e+005 2.558250328542e+005 2.558250328542e+005 2.558250328542e+005 2.532624564009e+005 2.532624564009e+005 2.532624564009e+005 2.532624564009e+005 2.532624564009e+005 2.532624564009e+005 2.532624564009e+005 2.532624564009e+005 2.532624564009e+005 2.506563406062e+005 2.506563406062e+005 2.506563406062e+005 2.506563406062e+005 2.506563406062e+005 2.506563406062e+005 2.506563406062e+005 2.506563406062e+005 2.506563406062e+005 2.480035483051e+005 2.480035483051e+005 2.480035483051e+005 2.480035483051e+005 2.480035483051e+005 2.480035483051e+005 2.480035483051e+005 2.480035483051e+005 2.480035483051e+005 2.453007013772e+005 2.453007013772e+005 2.453007013772e+005 2.453007013772e+005 2.453007013772e+005 2.453007013772e+005 2.453007013772e+005 2.453007013772e+005 2.453007013772e+005 2.425441540322e+005 2.425441540322e+005 2.425441540322e+005 2.425441540322e+005 2.425441540322e+005 2.425441540322e+005 2.425441540322e+005 2.425441540322e+005 2.425441540322e+005 2.397299621265e+005 2.397299621265e+005 2.397299621265e+005 2.397299621265e+005 2.397299621265e+005 2.397299621265e+005 2.397299621265e+005 2.397299621265e+005 2.397299621265e+005 2.368538477588e+005 2.368538477588e+005 2.368538477588e+005 2.368538477588e+005 2.368538477588e+005 2.368538477588e+005 2.368538477588e+005 2.368538477588e+005 2.368538477588e+005 2.339111582201e+005 2.339111582201e+005 2.339111582201e+005 2.339111582201e+005 2.339111582201e+005 2.339111582201e+005 2.339111582201e+005 2.339111582201e+005 2.339111582201e+005 2.308968181504e+005 2.308968181504e+005 2.308968181504e+005 2.308968181504e+005 2.308968181504e+005 2.308968181504e+005 2.308968181504e+005 2.308968181504e+005 2.308968181504e+005 2.278052734714e+005 2.278052734714e+005 2.278052734714e+005 2.278052734714e+005 2.278052734714e+005 2.278052734714e+005 2.278052734714e+005 2.278052734714e+005 2.278052734714e+005 2.246304253005e+005 2.246304253005e+005 2.246304253005e+005 2.246304253005e+005 2.246304253005e+005 2.246304253005e+005 2.246304253005e+005 2.246304253005e+005 2.246304253005e+005 2.213655515769e+005 2.213655515769e+005 2.213655515770e+005 2.213655515769e+005 2.213655515769e+005 2.213655515769e+005 2.213655515770e+005 2.213655515769e+005 2.213655515769e+005 2.180032135120e+005 2.180032135120e+005 2.180032135120e+005 2.180032135120e+005 2.180032135120e+005 2.180032135120e+005 2.180032135120e+005 2.180032135120e+005 2.180032135120e+005 2.145351431545e+005 2.145351431545e+005 2.145351431545e+005 2.145351431545e+005 2.145351431545e+005 2.145351431545e+005 2.145351431545e+005 2.145351431545e+005 2.145351431545e+005 2.109521072571e+005 2.109521072571e+005 2.109521072571e+005 2.109521072571e+005 2.109521072571e+005 2.109521072571e+005 2.109521072571e+005 2.109521072571e+005 2.109521072571e+005 2.072437411361e+005 2.072437411361e+005 2.072437411361e+005 2.072437411361e+005 2.072437411361e+005 2.072437411361e+005 2.072437411361e+005 2.072437411361e+005 2.072437411361e+005 2.033983441466e+005 2.033983441466e+005 2.033983441466e+005 2.033983441466e+005 2.033983441466e+005 2.033983441466e+005 2.033983441466e+005 2.033983441466e+005 2.033983441466e+005 1.994026255223e+005 1.994026255223e+005 1.994026255223e+005 1.994026255223e+005 1.994026255223e+005 1.994026255223e+005 1.994026255223e+005 1.994026255223e+005 1.994026255223e+005 1.952413852466e+005 1.952413852466e+005 1.952413852466e+005 1.952413852466e+005 1.952413852466e+005 1.952413852466e+005 1.952413852466e+005 1.952413852466e+005 1.952413852466e+005 1.908971087723e+005 1.908971087723e+005 1.908971087723e+005 1.908971087723e+005 1.908971087723e+005 1.908971087722e+005 1.908971087722e+005 1.908971087722e+005 1.908971087722e+005 1.863494458718e+005 1.863494458718e+005 1.863494458718e+005 1.863494458718e+005 1.863494458718e+005 1.863494458718e+005 1.863494458718e+005 1.863494458718e+005 1.863494458718e+005 1.815745312361e+005 1.815745312361e+005 1.815745312361e+005 1.815745312361e+005 1.815745312361e+005 1.815745312361e+005 1.815745312361e+005 1.815745312361e+005 1.815745312361e+005 1.765440852120e+005 1.765440852120e+005 1.765440852120e+005 1.765440852120e+005 1.765440852120e+005 1.765440852120e+005 1.765440852120e+005 1.765440852120e+005 1.765440852120e+005 1.712242030798e+005 1.712242030798e+005 1.712242030798e+005 1.712242030798e+005 1.712242030798e+005 1.712242030798e+005 1.712242030798e+005 1.712242030797e+005 1.712242030797e+005 1.655736928598e+005 1.655736928598e+005 1.655736928598e+005 1.655736928598e+005 1.655736928598e+005 1.655736928597e+005 1.655736928597e+005 1.655736928597e+005 1.655736928597e+005 1.595417409131e+005 1.595417409131e+005 1.595417409131e+005 1.595417409131e+005 1.595417409131e+005 1.595417409131e+005 1.595417409131e+005 1.595417409131e+005 1.595417409131e+005 1.530645444965e+005 1.530645444965e+005 1.530645444965e+005 1.530645444964e+005 1.530645444964e+005 1.530645444964e+005 1.530645444964e+005 1.530645444964e+005 1.530645444964e+005 1.460602997303e+005 1.460602997303e+005 1.460602997303e+005 1.460602997303e+005 1.460602997303e+005 1.460602997303e+005 1.460602997302e+005 1.460602997302e+005 1.460602997302e+005 1.384214664565e+005 1.384214664565e+005 1.384214664565e+005 1.384214664565e+005 1.384214664565e+005 1.384214664565e+005 1.384214664565e+005 1.384214664565e+005 1.384214664565e+005 1.300023576020e+005 1.300023576020e+005 1.300023576020e+005 1.300023576020e+005 1.300023576020e+005 1.300023576020e+005 1.300023576021e+005 1.300023576021e+005 1.300023576021e+005 1.205979766999e+005 1.205979767001e+005 1.205979767001e+005 1.205979767000e+005 1.205979767002e+005 1.205979767001e+005 1.205979767001e+005 1.205979767002e+005 1.205979767002e+005 1.099059297687e+005 1.099059297679e+005 1.099059297680e+005 1.099059297689e+005 1.099059297680e+005 1.099059297684e+005 1.099059297685e+005 1.099059297684e+005 1.099059297683e+005 9.745073841451e+004 9.745073841900e+004 9.745073841910e+004 9.745073841507e+004 9.745073842070e+004 9.745073841936e+004 9.745073841967e+004 9.745073842066e+004 9.745073842158e+004 8.241934880906e+004 8.241934878742e+004 8.241934878714e+004 8.241934880658e+004 8.241934877969e+004 8.241934878428e+004 8.241934878356e+004 8.241934877847e+004 8.241934877388e+004 6.324825598159e+004 6.324825606559e+004 6.324825606553e+004 6.324825598801e+004 6.324825609044e+004 6.324825606972e+004 6.324825606948e+004 6.324825608851e+004 6.324825610582e+004 3.649318367985e+004 3.649318342190e+004 3.649318342169e+004 3.649318366128e+004 3.649318335122e+004 3.649318342863e+004 3.649318342948e+004 3.649318337673e+004 3.649318333003e+004 -3.981198280881e+003 -3.981197377818e+003 -3.981197384489e+003 -3.981198265237e+003 -3.981197153563e+003 -3.981197533778e+003 -3.981197506846e+003 -3.981197364655e+003 -3.981197218978e+003 -4.996081695347e+004 -4.996081807330e+004 -4.996081638776e+004 -4.996081689681e+004 -4.996081658303e+004 -4.996081723521e+004 -4.996081725440e+004 -4.996081624513e+004 -4.996081753490e+004 -9.584069585601e+004 -9.584069291475e+004 -9.584069218946e+004 -9.584069357796e+004 -9.584069262386e+004 -9.584069179781e+004 -9.584069238041e+004 -9.584069185559e+004 -9.584069325391e+004 -1.416263023518e+005 -1.416262993120e+005 -1.416262977961e+005 -1.416262990961e+005 -1.416262991743e+005 -1.416262994424e+005 -1.416262992388e+005 -1.416262997112e+005 -1.416262976333e+005 -1.873226172826e+005 -1.873226162220e+005 -1.873226148760e+005 -1.873226156995e+005 -1.873226162411e+005 -1.873226160344e+005 -1.873226161836e+005 -1.873226149284e+005 -1.873226149151e+005 -2.329348499782e+005 -2.329348480436e+005 -2.329348468387e+005 -2.329348471588e+005 -2.329348466575e+005 -2.329348451512e+005 -2.329348468973e+005 -2.329348463232e+005 -2.329348457906e+005 -2.784680726258e+005 -2.784680697578e+005 -2.784680690581e+005 -2.784680671996e+005 -2.784680672752e+005 -2.784680669914e+005 -2.784680672420e+005 -2.784680659115e+005 -2.784680651874e+005 -3.239272694761e+005 -3.239272685387e+005 -3.239272674968e+005 -3.239272661149e+005 -3.239272655010e+005 -3.239272646035e+005 -3.239272647007e+005 -3.239272633020e+005 -3.239272638230e+005 -3.693172891270e+005 -3.693172889741e+005 -3.693172867982e+005 -3.693172880848e+005 -3.693172857730e+005 -3.693172853318e+005 -3.693172850442e+005 -3.693172838978e+005 -3.693172828020e+005 -4.146428543519e+005 -4.146428533595e+005 -4.146428542894e+005 -4.146428520060e+005 -4.146428516740e+005 -4.146428505142e+005 -4.146428502811e+005 -4.146428500832e+005 -4.146428490084e+005 -4.599085663193e+005 -4.599085678963e+005 -4.599085672562e+005 -4.599085670718e+005 -4.599085656347e+005 -4.599085651996e+005 -4.599085643394e+005 -4.599085629418e+005 -4.599085622661e+005 -5.051189131908e+005 -5.051189150696e+005 -5.051189157979e+005 -5.051189143295e+005 -5.051189127153e+005 -5.051189128143e+005 -5.051189112396e+005 -5.051189098879e+005 -5.051189097303e+005 -5.502782829122e+005 -5.502782852482e+005 -5.502782850999e+005 -5.502782850634e+005 -5.502782840890e+005 -5.502782823119e+005 -5.502782811196e+005 -5.502782808227e+005 -5.502782801460e+005 -5.953909968076e+005 -5.953909948655e+005 -5.953909957264e+005 -5.953909956590e+005 -5.953909953422e+005 -5.953909927802e+005 -5.953909917555e+005 -5.953909925534e+005 -5.953909922225e+005 -6.404613079621e+005 -6.404613073956e+005 -6.404613071580e+005 -6.404613070603e+005 -6.404613060898e+005 -6.404613038518e+005 -6.404613044955e+005 -6.404613038635e+005 -6.404613041943e+005 -6.854934362825e+005 -6.854934355047e+005 -6.854934354559e+005 -6.854934340255e+005 -6.854934338725e+005 -6.854934328272e+005 -6.854934325482e+005 -6.854934319574e+005 -6.854934326656e+005 -7.304915669597e+005 -7.304915660587e+005 -7.304915664288e+005 -7.304915660609e+005 -7.304915649250e+005 -7.304915648051e+005 -7.304915641844e+005 -7.304915641143e+005 -7.304915629207e+005 -7.754598710428e+005 -7.754598717135e+005 -7.754598724886e+005 -7.754598720275e+005 -7.754598712908e+005 -7.754598715907e+005 -7.754598709407e+005 -7.754598709746e+005 -7.754598707012e+005 -8.204025188967e+005 -8.204025196674e+005 -8.204025202107e+005 -8.204025196257e+005 -8.204025195797e+005 -8.204025198015e+005 -8.204025189853e+005 -8.204025195164e+005 -8.204025195864e+005 -8.653236791408e+005 -8.653236792546e+005 -8.653236795980e+005 -8.653236797233e+005 -8.653236785801e+005 -8.653236784194e+005 -8.653236787236e+005 -8.653236789891e+005 -8.653236788316e+005 -9.102275240466e+005 -9.102275248688e+005 -9.102275255006e+005 -9.102275254279e+005 -9.102275251232e+005 -9.102275244446e+005 -9.102275244445e+005 -9.102275246145e+005 -9.102275247266e+005 -9.551182372352e+005 -9.551182376671e+005 -9.551182379188e+005 -9.551182377688e+005 -9.551182378618e+005 -9.551182374027e+005 -9.551182374023e+005 -9.551182375661e+005 -9.551182374081e+005 -1.000000000000e+006 -1.000000000000e+006 -1.000000000000e+006 -1.000000000000e+006 -1.000000000000e+006 -1.000000000000e+006 -1.000000000000e+006 -1.000000000000e+006 -1.000000000000e+006 
        </DataArray>
        <DataArray type="Float64" Name="NONWET_PRESSURE" format="ascii">