<?xml version="1.0"?>
<VTKFile type="UnstructuredGrid" version="0.1" byte_order="LittleEndian">
  <UnstructuredGrid>
    <Piece NumberOfPoints="909" NumberOfCells="800">
      <Points>
        <DataArray type="Float64" NumberOfComponents="3" format="ascii">
          0.000000000000e+000 0.000000000000e+000 0.000000000000e+000
          2.000000000000e+000 0.000000000000e+000 0.000000000000e+000
          2.000000000000e+000 2.500000000000e+000 0.000000000000e+000
          0.000000000000e+000 2.500000000000e+000 0.000000000000e+000
          2.000000000000e+000 5.000000000000e+000 0.000000000000e+000
          0.000000000000e+000 5.000000000000e+000 0.000000000000e+000
          2.000000000000e+000 7.500000000000e+000 0.000000000000e+000
          0.000000000000e+000 7.500000000000e+000 0.000000000000e+000
          2.000000000000e+000 1.000000000000e+001 0.000000000000e+000
          0.000000000000e+000 1.000000000000e+001 0.000000000000e+000
          2.000000000000e+000 1.250000000000e+001 0.000000000000e+000
          0.000000000000e+000 1.250000000000e+001 0.000000000000e+000
          2.000000000000e+000 1.500000000000e+001 0.000000000000e+000
          0.000000000000e+000 1.500000000000e+001 0.000000000000e+000
          2.000000000000e+000 1.750000000000e+001 0.000000000000e+000
          0.000000000000e+000 1.750000000000e+001 0.000000000000e+000
          2.000000000000e+000 2.000000000000e+001 0.000000000000e+000
          0.000000000000e+000 2.000000000000e+001 0.000000000000e+000
          4.000000000000e+000 0.000000000000e+000 0.000000000000e+000
          4.000000000000e+000 2.500000000000e+000 0.000000000000e+000
          4.000000000000e+000 5.000000000000e+000 0.000000000000e+000
          4.000000000000e+000 7.500000000000e+000 0.000000000000e+000
          4.000000000000e+000 1.000000000000e+001 0.000000000000e+000
          4.000000000000e+000 1.250000000000e+001 0.000000000000e+000
          4.000000000000e+000 1.500000000000e+001 0.000000000000e+000
          4.000000000000e+000 1.750000000000e+001 0.000000000000e+000
          4.000000000000e+000 2.000000000000e+001 0.000000000000e+000
          6.000000000000e+000 0.000000000000e+000 0.000000000000e+000
          6.000000000000e+000 2.500000000000e+000 0.000000000000e+000
          6.000000000000e+000 5.000000000000e+000 0.000000000000e+000
          6.000000000000e+000 7.500000000000e+000 0.000000000000e+000
          6.000000000000e+000 1.000000000000e+001 0.000000000000e+000
          6.000000000000e+000 1.250000000000e+001 0.000000000000e+000
          6.000000000000e+000 1.500000000000e+001 0.000000000000e+000
          6.000000000000e+000 1.750000000000e+001 0.000000000000e+000
          6.000000000000e+000 2.000000000000e+001 0.000000000000e+000
          8.000000000000e+000 0.000000000000e+000 0.000000000000e+000
          8.000000000000e+000 2.500000000000e+000 0.000000000000e+000
          8.000000000000e+000 5.000000000000e+000 0.000000000000e+000
          8.000000000000e+000 7.500000000000e+000 0.000000000000e+000
          8.000000000000e+000 1.000000000000e+001 0.000000000000e+000
          8.000000000000e+000 1.250000000000e+001 0.000000000000e+000
          8.000000000000e+000 1.500000000000e+001 0.000000000000e+000
          8.000000000000e+000 1.750000000000e+001 0.000000000000e+000
          8.000000000000e+000 2.000000000000e+001 0.000000000000e+000
          1.000000000000e+001 0.000000000000e+000 0.000000000000e+000
          1.000000000000e+001 2.500000000000e+000 0.000000000000e+000
          1.000000000000e+001 5.000000000000e+000 0.000000000000e+000
          1.000000000000e+001 7.500000000000e+000 0.000000000000e+000
          1.000000000000e+001 1.000000000000e+001 0.000000000000e+000
          1.000000000000e+001 1.250000000000e+001 0.000000000000e+000
          1.000000000000e+001 1.500000000000e+001 0.000000000000e+000
          1.000000000000e+001 1.750000000000e+001 0.000000000000e+000
          1.000000000000e+001 2.000000000000e+001 0.000000000000e+000
          1.200000000000e+001 0.000000000000e+000 0.000000000000e+000
          1.200000000000e+001 2.500000000000e+000 0.000000000000e+000
          1.200000000000e+001 5.000000000000e+000 0.000000000000e+000
          1.200000000000e+001 7.500000000000e+000 0.000000000000e+000
          1.200000000000e+001 1.000000000000e+001 0.000000000000e+000
          1.200000000000e+001 1.250000000000e+001 0.000000000000e+000
          1.200000000000e+001 1.500000000000e+001 0.000000000000e+000
          1.200000000000e+001 1.750000000000e+001 0.000000000000e+000
          1.200000000000e+001 2.000000000000e+001 0.000000000000e+000
          1.400000000000e+001 0.000000000000e+000 0.000000000000e+000
          1.400000000000e+001 2.500000000000e+000 0.000000000000e+000
          1.400000000000e+001 5.000000000000e+000 0.000000000000e+000
          1.400000000000e+001 7.500000000000e+000 0.000000000000e+000
          1.400000000000e+001 1.000000000000e+001 0.000000000000e+000
          1.400000000000e+001 1.250000000000e+001 0.000000000000e+000
          1.400000000000e+001 1.500000000000e+001 0.000000000000e+000
          1.400000000000e+001 1.750000000000e+001 0.000000000000e+000
          1.400000000000e+001 2.000000000000e+001 0.000000000000e+000
          1.600000000000e+001 0.000000000000e+000 0.000000000000e+000
          1.600000000000e+001 2.500000000000e+000 0.000000000000e+000
          1.600000000000e+001 5.000000000000e+000 0.000000000000e+000
          1.600000000000e+001 7.500000000000e+000 0.000000000000e+000
          1.600000000000e+001 1.000000000000e+001 0.000000000000e+000
          1.600000000000e+001 1.250000000000e+001 0.000000000000e+000
          1.600000000000e+001 1.500000000000e+001 0.000000000000e+000
          1.600000000000e+001 1.750000000000e+001 0.000000000000e+000
          1.600000000000e+001 2.000000000000e+001 0.000000000000e+000
          1.800000000000e+001 0.000000000000e+000 0.000000000000e+000
          1.800000000000e+001 2.500000000000e+000 0.000000000000e+000
          1.800000000000e+001 5.000000000000e+000 0.000000000000e+000
          1.800000000000e+001 7.500000000000e+000 0.000000000000e+000
          1.800000000000e+001 1.000000000000e+001 0.000000000000e+000
          1.800000000000e+001 1.250000000000e+001 0.000000000000e+000
          1.800000000000e+001 1.500000000000e+001 0.000000000000e+000
          1.800000000000e+001 1.750000000000e+001 0.000000000000e+000
          1.800000000000e+001 2.000000000000e+001 0.000000000000e+000
          2.000000000000e+001 0.000000000000e+000 0.000000000000e+000
          2.000000000000e+001 2.500000000000e+000 0.000000000000e+000
          2.000000000000e+001 5.000000000000e+000 0.000000000000e+000
          2.000000000000e+001 7.500000000000e+000 0.000000000000e+000
          2.000000000000e+001 1.000000000000e+001 0.000000000000e+000
          2.000000000000e+001 1.250000000000e+001 0.000000000000e+000
          2.000000000000e+001 1.500000000000e+001 0.000000000000e+000
          2.000000000000e+001 1.750000000000e+001 0.000000000000e+000
          2.000000000000e+001 2.000000000000e+001 0.000000000000e+000
          2.200000000000e+001 0.000000000000e+000 0.000000000000e+000
          2.200000000000e+001 2.500000000000e+000 0.000000000000e+000
          2.200000000000e+001 5.000000000000e+000 0.000000000000e+000
          2.200000000000e+001 7.500000000000e+000 0.000000000000e+000
          2.200000000000e+001 1.000000000000e+001 0.000000000000e+000
          2.200000000000e+001 1.250000000000e+001 0.000000000000e+000
          2.200000000000e+001 1.500000000000e+001 0.000000000000e+000
          2.200000000000e+001 1.750000000000e+001 0.000000000000e+000
          2.200000000000e+001 2.000000000000e+001 0.000000000000e+000
          2.400000000000e+001 0.000000000000e+000 0.000000000000e+000
          2.400000000000e+001 2.500000000000e+000 0.000000000000e+000
          2.400000000000e+001 5.000000000000e+000 0.000000000000e+000
          2.400000000000e+001 7.500000000000e+000 0.000000000000e+000
          2.400000000000e+001 1.000000000000e+001 0.000000000000e+000
          2.400000000000e+001 1.250000000000e+001 0.000000000000e+000
          2.400000000000e+001 1.500000000000e+001 0.000000000000e+000
          2.400000000000e+001 1.750000000000e+001 0.000000000000e+000
          2.400000000000e+001 2.000000000000e+001 0.000000000000e+000
          2.600000000000e+001 0.000000000000e+000 0.000000000000e+000
          2.600000000000e+001 2.500000000000e+000 0.000000000000e+000
          2.600000000000e+001 5.000000000000e+000 0.000000000000e+000
          2.600000000000e+001 7.500000000000e+000 0.000000000000e+000
          2.600000000000e+001 1.000000000000e+001 0.000000000000e+000
          2.600000000000e+001 1.250000000000e+001 0.000000000000e+000
          2.600000000000e+001 1.500000000000e+001 0.000000000000e+000
          2.600000000000e+001 1.750000000000e+001 0.000000000000e+000
          2.600000000000e+001 2.000000000000e+001 0.000000000000e+000
          2.800000000000e+001 0.000000000000e+000 0.000000000000e+000
          2.800000000000e+001 2.500000000000e+000 0.000000000000e+000
          2.800000000000e+001 5.000000000000e+000 0.000000000000e+000
          2.800000000000e+001 7.500000000000e+000 0.000000000000e+000
          2.800000000000e+001 1.000000000000e+001 0.000000000000e+000
          2.800000000000e+001 1.250000000000e+001 0.000000000000e+000
          2.800000000000e+001 1.500000000000e+001 0.000000000000e+000
          2.800000000000e+001 1.750000000000e+001 0.000000000000e+000
          2.800000000000e+001 2.000000000000e+001 0.000000000000e+000
          3.000000000000e+001 0.000000000000e+000 0.000000000000e+000
          3.000000000000e+001 2.500000000000e+000 0.000000000000e+000
          3.000000000000e+001 5.000000000000e+000 0.000000000000e+000
          3.000000000000e+001 7.500000000000e+000 0.000000000000e+000
[...]
      <PointData Scalars="CAPILLARY_PRESSURE">
        <DataArray type="Float64" Name="CAPILLARY_PRESSURE" format="ascii">
          1.673974739826e+005 1.601938272825e+005 1.601938272827e+005 1.673974739823e+005 1.601938272825e+005 1.673974739823e+005 1.601938272823e+005 1.673974739821e+005 1.601938272821e+005 1.673974739819e+005 1.601938272819e+005 1.673974739818e+005 1.601938272816e+005 1.673974739816e+005 1.601938272815e+005 1.673974739815e+005 1.601938272816e+005 1.673974739814e+005 1.526639356961e+005 1.526639356955e+005 1.526639356956e+005 1.526639356955e+005 1.526639356950e+005 1.526639356949e+005 1.526639356947e+005 1.526639356947e+005 1.526639356943e+005 1.447398912547e+005 1.447398912555e+005 1.447398912549e+005 1.447398912545e+005 1.447398912547e+005 1.447398912539e+005 1.447398912539e+005 1.447398912533e+005 1.447398912540e+005 1.363350661137e+005 1.363350661128e+005 1.363350661129e+005 1.363350661125e+005 1.363350661114e+005 1.363350661117e+005 1.363350661104e+005 1.363350661113e+005 1.363350661100e+005 1.273329799528e+005 1.273329799512e+005 1.273329799516e+005 1.273329799505e+005 1.273329799496e+005 1.273329799480e+005 1.273329799493e+005 1.273329799473e+005 1.273329799489e+005 1.175718126348e+005 1.175718126415e+005 1.175718126347e+005 1.175718126339e+005 1.175718126348e+005 1.175718126318e+005 1.175718126305e+005 1.175718126298e+005 1.175718126290e+005 1.068168978123e+005 1.068168977958e+005 1.068168978071e+005 1.068168978016e+005 1.068168977892e+005 1.068168977974e+005 1.068168977866e+005 1.068168977954e+005 1.068168977911e+005 9.471055574885e+004 9.471055576575e+004 9.471055574656e+004 9.471055575719e+004 9.471055577769e+004 9.471055574402e+004 9.471055577495e+004 9.471055573956e+004 9.471055575251e+004 8.066875151537e+004 8.066875152840e+004 8.066875153027e+004 8.066875146682e+004 8.066875142377e+004 8.066875148223e+004 8.066875140326e+004 8.066875148312e+004 8.066875145282e+004 6.365372377970e+004 6.365372362899e+004 6.365372366100e+004 6.365372384624e+004 6.365372385649e+004 6.365372375063e+004 6.365372388842e+004 6.365372370503e+004 6.365372378465e+004 4.161165858988e+004 4.161165914104e+004 4.161165899431e+004 4.161165848546e+004 4.161165859300e+004 4.161165872990e+004 4.161165844362e+004 4.161165886581e+004 4.161165858267e+004 1.068161200076e+004 1.068161040297e+004 1.068161064326e+004 1.068161174218e+004 1.068161119260e+004 1.068161077184e+004 1.068161148995e+004 1.068161043549e+004 1.068161138689e+004 -2.716525088014e+004 -2.716525197996e+004 -2.716524506545e+004 -2.716524804496e+004 -2.716524848543e+004 -2.716523956010e+004 -2.716524357809e+004 -2.716524563730e+004 -2.716524286133e+004 -6.416594871000e+004 -6.416594045370e+004 -6.416594775333e+004 -6.416594445533e+004 -6.416594964313e+004 -6.416594994525e+004 -6.416594478449e+004 -6.416594355414e+004 -6.416594357600e+004 -1.001666340440e+005 -1.001666328881e+005 -1.001666457716e+005 -1.001666408200e+005 -1.001666370479e+005 -1.001666443066e+005 -1.001666434423e+005 -1.001666363745e+005 -1.001666318406e+005 -1.351838990363e+005 -1.351838979550e+005 -1.351839176088e+005 -1.351839166147e+005 -1.351839120124e+005 -1.351839077370e+005 -1.351839136392e+005 -1.351838967650e+005 -1.351838961697e+005 -1.692307281519e+005 -1.692307255790e+005 -1.692307418067e+005 -1.692307482899e+005 -1.692307470365e+005 -1.692307418532e+005 -1.692307424538e+005 -1.692307332601e+005 -1.692307236134e+005 -2.023187266125e+005 -2.023187288232e+005 -2.023187385652e+005 -2.023187462107e+005 -2.023187515817e+005 -2.023187411464e+005 -2.023187286324e+005 -2.023187268395e+005 -2.023187332828e+005 -2.344587326572e+005 -2.344587376624e+005 -2.344587409777e+005 -2.344587391561e+005 -2.344587382107e+005 -2.344587330555e+005 -2.344587254808e+005 -2.344587190584e+005 -2.344587331682e+005 -2.656616592875e+005 -2.656616664203e+005 -2.656616641699e+005 -2.656616646924e+005 -2.656616648343e+005 -2.656616522928e+005 -2.656616503743e+005 -2.656616461617e+005 -2.656616498137e+005 -2.959391759967e+005 -2.959391726653e+005 -2.959391748071e+005 -2.959391681790e+005 -2.959391625783e+005 -2.959391465649e+005 -2.959391559291e+005 -2.959391499801e+005 -2.959391510663e+005 -3.253039257727e+005 -3.253039264288e+005 -3.253039181625e+005 -3.253039097237e+005 -3.253039011979e+005 -3.253038954572e+005 -3.253038911356e+005 -3.253038892192e+005 -3.253038888195e+005 -3.537697047408e+005 -3.537696772228e+005 -3.537696796226e+005 -3.537696682341e+005 -3.537696544022e+005 -3.537696529239e+005 -3.537696458134e+005 -3.537696344079e+005 -3.537696432408e+005 -3.813511235833e+005 -3.813511153029e+005 -3.813511009597e+005 -3.813510951736e+005 -3.813510832841e+005 -3.813510795276e+005 -3.813510790119e+005 -3.813510712753e+005 -3.813510805125e+005 -4.080634618561e+005 -4.080634460724e+005 -4.080634394773e+005 -4.080634323262e+005 -4.080634173365e+005 -4.080634133243e+005 -4.080634087236e+005 -4.080634175815e+005 -4.080634213643e+005 -4.339222144871e+005 -4.339222183757e+005 -4.339222147198e+005 -4.339222023080e+005 -4.339221927610e+005 -4.339221844124e+005 -4.339221840072e+005 -4.339221941433e+005 -4.339222001380e+005 -4.589431404810e+005 -4.589431308099e+005 -4.589431220851e+005 -4.589431088313e+005 -4.589431048669e+005 -4.589431085146e+005 -4.589431051323e+005 -4.589431018478e+005 -4.589430981735e+005 -4.831419559165e+005 -4.831419510304e+005 -4.831419361065e+005 -4.831419334521e+005 -4.831419278798e+005 -4.831419288364e+005 -4.831419230809e+005 -4.831419250046e+005 -4.831419209685e+005 -5.065344796129e+005 -5.065344760740e+005 -5.065344705641e+005 -5.065344710875e+005 -5.065344615589e+005 -5.065344685850e+005 -5.065344597346e+005 -5.065344576781e+005 -5.065344588972e+005 -5.291365368426e+005 -5.291365518431e+005 -5.291365397205e+005 -5.291365409339e+005 -5.291365429922e+005 -5.291365374479e+005 -5.291365335208e+005 -5.291365293470e+005 -5.291365340371e+005 -5.509639756728e+005 -5.509639864399e+005 -5.509639901720e+005 -5.509639911467e+005 -5.509640012907e+005 -5.509639858791e+005 -5.509639821904e+005 -5.509639728795e+005 -5.509639759315e+005 -5.720326375265e+005 -5.720326527385e+005 -5.720326450342e+005 -5.720326568529e+005 -5.720326616967e+005 -5.720326645414e+005 -5.720326538510e+005 -5.720326469523e+005 -5.720326390029e+005 -5.923583908432e+005 -5.923584016693e+005 -5.923584047155e+005 -5.923584093578e+005 -5.923584119036e+005 -5.923584170786e+005 -5.923584016621e+005 -5.923583867376e+005 -5.923583899889e+005 -6.119571025507e+005 -6.119571095589e+005 -6.119571130886e+005 -6.119571210177e+005 -6.119571264121e+005 -6.119571085238e+005 -6.119571012904e+005 -6.119570998023e+005 -6.119570876409e+005 -6.308446617866e+005 -6.308446660665e+005 -6.308446540750e+005 -6.308446687090e+005 -6.308446697668e+005 -6.308446615950e+005 -6.308446434247e+005 -6.308446407806e+005 -6.308446481198e+005 -6.490369589653e+005 -6.490369436004e+005 -6.490369485544e+005 -6.490369513449e+005 -6.490369550586e+005 -6.490369355185e+005 -6.490369371561e+005 -6.490369245546e+005 -6.490369284759e+005 -6.665498535456e+005 -6.665498588149e+005 -6.665498621041e+005 -6.665498689816e+005 -6.665498641023e+005 -6.665498494864e+005 -6.665498474896e+005 -6.665498429988e+005 -6.665498351581e+005 -6.833992698774e+005 -6.833992757687e+005 -6.833992778585e+005 -6.833992818355e+005 -6.833992773246e+005 -6.833992621913e+005 -6.833992567837e+005 -6.833992536300e+005 -6.833992499072e+005 -6.996010505157e+005 -6.996010441376e+005 -6.996010536025e+005 -6.996010513618e+005 -6.996010432423e+005 -6.996010341387e+005 -6.996010188179e+005 -6.996010253861e+005 -6.996010194188e+005 -7.151709957655e+005 -7.151709887768e+005 -7.151709974846e+005 -7.151709949210e+005 -7.151709871826e+005 -7.151709771879e+005 -7.151709705200e+005 -7.151709610244e+005 -7.151709642784e+005 -7.301248902309e+005 -7.301248914093e+005 -7.301248960838e+005 -7.301248932138e+005 -7.301248895262e+005 -7.301248724821e+005 -7.301248652746e+005 -7.301248666444e+005 -7.301248573723e+005 -7.444784575685e+005 -7.444784659714e+005 -7.444784598343e+005 -7.444784550866e+005 -7.444784528864e+005 -7.444784416872e+005 -7.444784307346e+005 -7.444784266014e+005 -7.444784243126e+005 -7.582473494282e+005 -7.582473340137e+005 -7.582473374170e+005 -7.582473278771e+005 -7.582473274426e+005 -7.582473203533e+005 -7.582473214846e+005 -7.582473004468e+005 -7.582473070397e+005 -7.714470954100e+005 -7.714471001977e+005 -7.714470947630e+005 -7.714470857237e+005 -7.714470835652e+005 -7.714470833158e+005 -7.714470721771e+005 -7.714470663954e+005 -7.714470628651e+005 -7.840932011634e+005 -7.840932053767e+005 -7.840932085270e+005 -7.840931938194e+005 -7.840931858859e+005 -7.840931864637e+005 -7.840931789903e+005 -7.840931751728e+005 -7.840931666861e+005 -7.962010218499e+005 -7.962010241898e+005 -7.962010208008e+005 -7.962010151959e+005 -7.962010075826e+005 -7.962009984911e+005 -7.962009927282e+005 -7.962009898713e+005 -7.962009917225e+005 -8.077857989623e+005 -8.077857928093e+005 -8.077857897472e+005 -8.077857812797e+005 -8.077857753653e+005 -8.077857648294e+005 -8.077857613048e+005 -8.077857555745e+005 -8.077857532274e+005 -8.188626211796e+005 -8.188626181094e+005 -8.188626114613e+005 -8.188626050625e+005 -8.188625939631e+005 -8.188625870698e+005 -8.188625855769e+005 -8.188625790707e+005 -8.188625757097e+005 -8.294464627902e+005 -8.294464608224e+005 -8.294464547789e+005 -8.294464460010e+005 -8.294464384031e+005 -8.294464329833e+005 -8.294464259914e+005 -8.294464230779e+005 -8.294464174319e+005 -8.395521343614e+005 -8.395521295998e+005 -8.395521269432e+005 -8.395521213819e+005 -8.395521149550e+005 -8.395521049981e+005 -8.395520982370e+005 -8.395520935612e+005 -8.395520939150e+005 -8.491942832000e+005 -8.491942809823e+005 -8.491942779037e+005 -8.491942732013e+005 -8.491942660374e+005 -8.491942556530e+005 -8.491942513179e+005 -8.491942455113e+005 -8.491942444419e+005 -8.583873827187e+005 -8.583873818691e+005 -8.583873793774e+005 -8.583873748406e+005 -8.583873695795e+005 -8.583873626610e+005 -8.583873588199e+005 -8.583873510724e+005 -8.583873549364e+005 -8.671457257037e+005 -8.671457212231e+005 -8.671457206736e+005 -8.671457191225e+005 -8.671457175720e+005 -8.671457100402e+005 -8.671457061430e+005 -8.671457033351e+005 -8.671457022301e+005 -8.754834079624e+005 -8.754834154185e+005 -8.754834120313e+005 -8.754834088996e+005 -8.754834082275e+005 -8.754834065122e+005 -8.754834006470e+005 -8.754833962726e+005 -8.754833943849e+005 -8.834143517073e+005 -8.834143541767e+005 -8.834143532491e+005 -8.834143476887e+005 -8.834143453551e+005 -8.834143436471e+005 -8.834143398858e+005 -8.834143402779e+005 -8.834143370847e+005 -8.909522352068e+005 -8.909522344850e+005 -8.909522328855e+005 -8.909522301642e+005 -8.909522285874e+005 -8.909522277173e+005 -8.909522237934e+005 -8.909522275547e+005 -8.909522241052e+005 -8.981105407435e+005 -8.981105414400e+005 -8.981105395186e+005 -8.981105357900e+005 -8.981105347746e+005 -8.981105354461e+005 -8.981105320196e+005 -8.981105326970e+005 -8.981105305718e+005 -9.049025312489e+005 -9.049025316141e+005 -9.049025296372e+005 -9.049025290447e+005 -9.049025269074e+005 -9.049025277668e+005 -9.049025262572e+005 -9.049025251781e+005 -9.049025272618e+005 -9.113412413415e+005 -9.113412427006e+005 -9.113412441196e+005 -9.113412438627e+005 -9.113412457569e+005 -9.113412417510e+005 -9.113412408015e+005 -9.113412418448e+005 -9.113412435855e+005 -9.174394843031e+005 -9.174394850199e+005 -9.174394887644e+005 -9.174394888694e+005 -9.174394875473e+005 -9.174394838553e+005 -9.174394852536e+005 -9.174394864837e+005 -9.174394876141e+005 -9.232098296484e+005 -9.232098330368e+005 -9.232098332515e+005 -9.232098326345e+005 -9.232098296221e+005 -9.232098304287e+005 -9.232098323805e+005 -9.232098297061e+005 -9.232098305584e+005 -9.286646059146e+005 -9.286646062481e+005 -9.286646061249e+005 -9.286646056040e+005 -9.286646046716e+005 -9.286646029098e+005 -9.286646053992e+005 -9.286646037297e+005 -9.286646034259e+005 -9.338159005212e+005 -9.338158975016e+005 -9.338158991779e+005 -9.338158981685e+005 -9.338158953320e+005 -9.338158965636e+005 -9.338158981611e+005 -9.338158975411e+005 -9.338158973857e+005 -9.386755519696e+005 -9.386755532814e+005 -9.386755533414e+005 -9.386755540330e+005 -9.386755504456e+005 -9.386755504227e+005 -9.386755536854e+005 -9.386755530658e+005 -9.386755515420e+005 -9.432551684270e+005 -9.432551695019e+005 -9.432551688008e+005 -9.432551675429e+005 -9.432551659760e+005 -9.432551669291e+005 -9.432551697839e+005 -9.432551693920e+005 -9.432551669029e+005 -9.475660893909e+005 -9.475660903650e+005 -9.475660901570e+005 -9.475660907406e+005 -9.475660878128e+005 -9.475660892191e+005 -9.475660913192e+005 -9.475660903240e+005 -9.475660886529e+005 -9.516194169851e+005 -9.516194179798e+005 -9.516194192705e+005 -9.516194166261e+005 -9.516194168477e+005 -9.516194179420e+005 -9.516194182571e+005 -9.516194192462e+005 -9.516194158292e+005 -9.554260000037e+005 -9.554260009006e+005 -9.554260004628e+005 -9.554259984789e+005 -9.554260004900e+005 -9.554260000289e+005 -9.554259991612e+005 -9.554259994195e+005 -9.554259988065e+005 -9.589964410183e+005 -9.589964402466e+005 -9.589964398149e+005 -9.589964394454e+005 -9.589964365497e+005 -9.589964366631e+005 -9.589964391750e+005 -9.589964378482e+005 -9.589964376153e+005 -9.623410893301e+005 -9.623410868474e+005 -9.623410866155e+005 -9.623410848069e+005 -9.623410830934e+005 -9.623410834658e+005 -9.623410858768e+005 -9.623410846630e+005 -9.623410856211e+005 -9.654700483721e+005 -9.654700476136e+005 -9.654700476001e+005 -9.654700467695e+005 -9.654700459905e+005 -9.654700458918e+005 -9.654700471080e+005 -9.654700474862e+005 -9.654700472381e+005 -9.683931824774e+005 -9.683931846639e+005 -9.683931851634e+005 -9.683931858736e+005 -9.683931844538e+005 -9.683931852108e+005 -9.683931865083e+005 -9.683931852151e+005 -9.683931844247e+005 -9.711201188757e+005 -9.711201167752e+005 -9.711201193481e+005 -9.711201194969e+005 -9.711201182024e+005 -9.711201205565e+005 -9.711201191440e+005 -9.711201193742e+005 -9.711201188344e+005 -9.736602296084e+005 -9.736602282448e+005 -9.736602280685e+005 -9.736602278161e+005 -9.736602274510e+005 -9.736602292911e+005 -9.736602289483e+005 -9.736602294634e+005 -9.736602275569e+005 -9.760226555583e+005 -9.760226588869e+005 -9.760226593394e+005 -9.760226591278e+005 -9.760226585025e+005 -9.760226601072e+005 -9.760226597980e+005 -9.760226599557e+005 -9.760226605476e+005 -9.782163240754e+005 -9.782163274952e+005 -9.782163265695e+005 -9.782163266011e+005 -9.782163295830e+005 -9.782163276415e+005 -9.782163290007e+005 -9.782163290294e+005 -9.782163293217e+005 -9.802499223219e+005 -9.802499238653e+005 -9.802499243003e+005 -9.802499232541e+005 -9.802499246090e+005 -9.802499250471e+005 -9.802499261902e+005 -9.802499247384e+005 -9.802499249738e+005 -9.821319190221e+005 -9.821319178904e+005 -9.821319180835e+005 -9.821319193878e+005 -9.821319180176e+005 -9.821319188410e+005 -9.821319189458e+005 -9.821319185012e+005 -9.821319180701e+005 -9.838705645293e+005 -9.838705656883e+005 -9.838705640975e+005 -9.838705647054e+005 -9.838705645249e+005 -9.838705652866e+005 -9.838705653680e+005 -9.838705642857e+005 -9.838705655166e+005 -9.854739115775e+005 -9.854739086512e+005 -9.854739079832e+005 -9.854739094573e+005 -9.854739085774e+005 -9.854739078238e+005 -9.854739084388e+005 -9.854739079022e+005 -9.854739092852e+005 -9.869497974381e+005 -9.869497944145e+005 -9.869497929373e+005 -9.869497942889e+005 -9.869497944267e+005 -9.869497947409e+005 -9.869497945638e+005 -9.869497950426e+005 -9.869497929650e+005 -9.883058729947e+005 -9.883058719430e+005 -9.883058706237e+005 -9.883058714846e+005 -9.883058720648e+005 -9.883058718915e+005 -9.883058720631e+005 -9.883058708175e+005 -9.883058708067e+005 -9.895496045724e+005 -9.895496026444e+005 -9.895496014576e+005 -9.895496018034e+005 -9.895496013296e+005 -9.895495998478e+005 -9.895496016115e+005 -9.895496010470e+005 -9.895496005172e+005 -9.906882705973e+005 -9.906882677336e+005 -9.906882670465e+005 -9.906882652060e+005 -9.906882653013e+005 -9.906882650357e+005 -9.906882652999e+005 -9.906882639772e+005 -9.906882632557e+005 -9.917289778478e+005 -9.917289769135e+005 -9.917289758805e+005 -9.917289745112e+005 -9.917289739116e+005 -9.917289730276e+005 -9.917289731348e+005 -9.917289717426e+005 -9.917289722654e+005 -9.926786765587e+005 -9.926786764078e+005 -9.926786742380e+005 -9.926786755338e+005 -9.926786732324e+005 -9.926786728008e+005 -9.926786725211e+005 -9.926786713793e+005 -9.926786702848e+005 -9.935441585460e+005 -9.935441575549e+005 -9.935441584894e+005 -9.935441562125e+005 -9.935441558880e+005 -9.935441547354e+005 -9.935441545079e+005 -9.935441543136e+005 -9.935441532400e+005 -9.943320685077e+005 -9.943320700859e+005 -9.943320694489e+005 -9.943320692694e+005 -9.943320678378e+005 -9.943320674079e+005 -9.943320665518e+005 -9.943320651570e+005 -9.943320644822e+005 -9.950489208903e+005 -9.950489227701e+005 -9.950489235007e+005 -9.950489220358e+005 -9.950489204255e+005 -9.950489205282e+005 -9.950489189568e+005 -9.950489176073e+005 -9.950489174503e+005 -9.957010976483e+005 -9.957010999849e+005 -9.957010998384e+005 -9.957010998044e+005 -9.957010988328e+005 -9.957010970584e+005 -9.957010958684e+005 -9.957010955731e+005 -9.957010948972e+005 -9.962948699989e+005 -9.962948680572e+005 -9.962948689194e+005 -9.962948688540e+005 -9.962948685393e+005 -9.962948659794e+005 -9.962948649563e+005 -9.962948657553e+005 -9.962948654250e+005 -9.968363920368e+005 -9.968363914705e+005 -9.968363912339e+005 -9.968363911375e+005 -9.968363901687e+005 -9.968363879322e+005 -9.968363885773e+005 -9.968363879460e+005 -9.968363882770e+005 -9.973317319124e+005 -9.973317311349e+005 -9.973317310866e+005 -9.973317296573e+005 -9.973317295056e+005 -9.973317284613e+005 -9.973317281833e+005 -9.973317275931e+005 -9.973317283016e+005 -9.977868660423e+005 -9.977868651415e+005 -9.977868655121e+005 -9.977868651449e+005 -9.977868640100e+005 -9.977868638909e+005 -9.977868632708e+005 -9.977868632010e+005 -9.977868620077e+005 -9.982076965785e+005 -9.982076972493e+005 -9.982076980247e+005 -9.982076975641e+005 -9.982076968280e+005 -9.982076971284e+005 -9.982076964790e+005 -9.982076965132e+005 -9.982076962400e+005 -9.986000647887e+005 -9.986000655595e+005 -9.986000661029e+005 -9.986000655182e+005 -9.986000654727e+005 -9.986000656949e+005 -9.986000648791e+005 -9.986000654105e+005 -9.986000654806e+005 -9.989697538864e+005 -9.989697540003e+005 -9.989697543439e+005 -9.989697544695e+005 -9.989697533265e+005 -9.989697531661e+005 -9.989697534705e+005 -9.989697537362e+005 -9.989697535788e+005 -9.993225022537e+005 -9.993225030760e+005 -9.993225037079e+005 -9.993225036352e+005 -9.993225033307e+005 -9.993225026523e+005 -9.993225026522e+005 -9.993225028224e+005 -9.993225029346e+005 -9.996640222438e+005 -9.996640226758e+005 -9.996640229277e+005 -9.996640227776e+005 -9.996640228708e+005 -9.996640224117e+005 -9.996640224113e+005 -9.996640225752e+005 -9.996640224173e+005 -1.000000000000e+006 -1.000000000000e+006 -1.000000000000e+006 -1.000000000000e+006 -1.000000000000e+006 -1.000000000000e+006 -1.000000000000e+006 -1.000000000000e+006 -1.000000000000e+006 
        </DataArray>
        <DataArray type="Float64" Name="NONWET_PRESSURE" format="ascii">