<?xml version="1.0"?>
<VTKFile type="UnstructuredGrid" version="0.1" byte_order="LittleEndian">
  <UnstructuredGrid>
    <Piece NumberOfPoints="909" NumberOfCells="800">
      <Points>
        <DataArray type="Float64" NumberOfComponents="3" format="ascii">
          0.000000000000e+000 0.000000000000e+000 0.000000000000e+000
          2.000000000000e+000 0.000000000000e+000 0.000000000000e+000
          2.000000000000e+000 2.500000000000e+000 0.000000000000e+000
          0.000000000000e+000 2.500000000000e+000 0.000000000000e+000
          2.000000000000e+000 5.000000000000e+000 0.000000000000e+000
          0.000000000000e+000 5.000000000000e+000 0.000000000000e+000
          2.000000000000e+000 7.500000000000e+000 0.000000000000e+000
          0.000000000000e+000 7.500000000000e+000 0.000000000000e+000
          2.000000000000e+000 1.000000000000e+001 0.000000000000e+000
          0.000000000000e+000 1.000000000000e+001 0.000000000000e+000
          2.000000000000e+000 1.250000000000e+001 0.000000000000e+000
          0.000000000000e+000 1.250000000000e+001 0.000000000000e+000
          2.000000000000e+000 1.500000000000e+001 0.000000000000e+000
          0.000000000000e+000 1.500000000000e+001 0.000000000000e+000
          2.000000000000e+000 1.750000000000e+001 0.000000000000e+000
          0.000000000000e+000 1.750000000000e+001 0.000000000000e+000
          2.000000000000e+000 2.000000000000e+001 0.000000000000e+000
          0.000000000000e+000 2.000000000000e+001 0.000000000000e+000
          4.000000000000e+000 0.000000000000e+000 0.000000000000e+000
          4.000000000000e+000 2.500000000000e+000 0.000000000000e+000
          4.000000000000e+000 5.000000000000e+000 0.000000000000e+000
          4.000000000000e+000 7.500000000000e+000 0.000000000000e+000
          4.000000000000e+000 1.000000000000e+001 0.000000000000e+000
          4.000000000000e+000 1.250000000000e+001 0.000000000000e+000
          4.000000000000e+000 1.500000000000e+001 0.000000000000e+000
          4.000000000000e+000 1.750000000000e+001 0.000000000000e+000
          4.000000000000e+000 2.000000000000e+001 0.000000000000e+000
          6.000000000000e+000 0.000000000000e+000 0.000000000000e+000
          6.000000000000e+000 2.500000000000e+000 0.000000000000e+000
          6.000000000000e+000 5.000000000000e+000 0.000000000000e+000
          6.000000000000e+000 7.500000000000e+000 0.000000000000e+000
          6.000000000000e+000 1.000000000000e+001 0.000000000000e+000
          6.000000000000e+000 1.250000000000e+001 0.000000000000e+000
          6.000000000000e+000 1.500000000000e+001 0.000000000000e+000
          6.000000000000e+000 1.750000000000e+001 0.000000000000e+000
          6.000000000000e+000 2.000000000000e+001 0.000000000000e+000
          8.000000000000e+000 0.000000000000e+000 0.000000000000e+000
          8.000000000000e+000 2.500000000000e+000 0.000000000000e+000
          8.000000000000e+000 5.000000000000e+000 0.000000000000e+000
          8.000000000000e+000 7.500000000000e+000 0.000000000000e+000
          8.000000000000e+000 1.000000000000e+001 0.000000000000e+000
          8.000000000000e+000 1.250000000000e+001 0.000000000000e+000
          8.000000000000e+000 1.500000000000e+001 0.000000000000e+000
          8.000000000000e+000 1.750000000000e+001 0.000000000000e+000
          8.000000000000e+000 2.000000000000e+001 0.000000000000e+000
          1.000000000000e+001 0.000000000000e+000 0.000000000000e+000
          1.000000000000e+001 2.500000000000e+000 0.000000000000e+000
          1.000000000000e+001 5.000000000000e+000 0.000000000000e+000
          1.000000000000e+001 7.500000000000e+000 0.000000000000e+000
          1.000000000000e+001 1.000000000000e+001 0.000000000000e+000
          1.000000000000e+001 1.250000000000e+001 0.000000000000e+000
          1.000000000000e+001 1.500000000000e+001 0.000000000000e+000
          1.000000000000e+001 1.750000000000e+001 0.000000000000e+000
          1.000000000000e+001 2.000000000000e+001 0.000000000000e+000
          1.200000000000e+001 0.000000000000e+000 0.000000000000e+000
          1.200000000000e+001 2.500000000000e+000 0.000000000000e+000
          1.200000000000e+001 5.000000000000e+000 0.000000000000e+000
          1.200000000000e+001 7.500000000000e+000 0.000000000000e+000
          1.200000000000e+001 1.000000000000e+001 0.000000000000e+000
          1.200000000000e+001 1.250000000000e+001 0.000000000000e+000
          1.200000000000e+001 1.500000000000e+001 0.000000000000e+000
          1.200000000000e+001 1.750000000000e+001 0.000000000000e+000
          1.200000000000e+001 2.000000000000e+001 0.000000000000e+000
          1.400000000000e+001 0.000000000000e+000 0.000000000000e+000
          1.400000000000e+001 2.500000000000e+000 0.000000000000e+000
          1.400000000000e+001 5.000000000000e+000 0.000000000000e+000
          1.400000000000e+001 7.500000000000e+000 0.000000000000e+000
          1.400000000000e+001 1.000000000000e+001 0.000000000000e+000
          1.400000000000e+001 1.250000000000e+001 0.000000000000e+000
          1.400000000000e+001 1.500000000000e+001 0.000000000000e+000
          1.400000000000e+001 1.750000000000e+001 0.000000000000e+000
          1.400000000000e+001 2.000000000000e+001 0.000000000000e+000
          1.600000000000e+001 0.000000000000e+000 0.000000000000e+000
          1.600000000000e+001 2.500000000000e+000 0.000000000000e+000
          1.600000000000e+001 5.000000000000e+000 0.000000000000e+000
          1.600000000000e+001 7.500000000000e+000 0.000000000000e+000
          1.600000000000e+001 1.000000000000e+001 0.000000000000e+000
          1.600000000000e+001 1.250000000000e+001 0.000000000000e+000
          1.600000000000e+001 1.500000000000e+001 0.000000000000e+000
          1.600000000000e+001 1.750000000000e+001 0.000000000000e+000
          1.600000000000e+001 2.000000000000e+001 0.000000000000e+000
          1.800000000000e+001 0.000000000000e+000 0.000000000000e+000
          1.800000000000e+001 2.500000000000e+000 0.000000000000e+000
          1.800000000000e+001 5.000000000000e+000 0.000000000000e+000
          1.800000000000e+001 7.500000000000e+000 0.000000000000e+000
          1.800000000000e+001 1.000000000000e+001 0.000000000000e+000
          1.800000000000e+001 1.250000000000e+001 0.000000000000e+000
          1.800000000000e+001 1.500000000000e+001 0.000000000000e+000
          1.800000000000e+001 1.750000000000e+001 0.000000000000e+000
          1.800000000000e+001 2.000000000000e+001 0.000000000000e+000
          2.000000000000e+001 0.000000000000e+000 0.000000000000e+000
          2.000000000000e+001 2.500000000000e+000 0.000000000000e+000
          2.000000000000e+001 5.000000000000e+000 0.000000000000e+000
          2.000000000000e+001 7.500000000000e+000 0.000000000000e+000
          2.000000000000e+001 1.000000000000e+001 0.000000000000e+000
          2.000000000000e+001 1.250000000000e+001 0.000000000000e+000
          2.000000000000e+001 1.500000000000e+001 0.000000000000e+000
          2.000000000000e+001 1.750000000000e+001 0.000000000000e+000
          2.000000000000e+001 2.000000000000e+001 0.000000000000e+000
          2.200000000000e+001 0.000000000000e+000 0.000000000000e+000
          2.200000000000e+001 2.500000000000e+000 0.000000000000e+000
          2.200000000000e+001 5.000000000000e+000 0.000000000000e+000
          2.200000000000e+001 7.500000000000e+000 0.000000000000e+000
          2.200000000000e+001 1.000000000000e+001 0.000000000000e+000
          2.200000000000e+001 1.250000000000e+001 0.000000000000e+000
          2.200000000000e+001 1.500000000000e+001 0.000000000000e+000
          2.200000000000e+001 1.750000000000e+001 0.000000000000e+000
          2.200000000000e+001 2.000000000000e+001 0.000000000000e+000
          2.400000000000e+001 0.000000000000e+000 0.000000000000e+000
          2.400000000000e+001 2.500000000000e+000 0.000000000000e+000
          2.400000000000e+001 5.000000000000e+000 0.000000000000e+000
          2.400000000000e+001 7.500000000000e+000 0.000000000000e+000
          2.400000000000e+001 1.000000000000e+001 0.000000000000e+000
          2.400000000000e+001 1.250000000000e+001 0.000000000000e+000
          2.400000000000e+001 1.500000000000e+001 0.000000000000e+000
          2.400000000000e+001 1.750000000000e+001 0.000000000000e+000
          2.400000000000e+001 2.000000000000e+001 0.000000000000e+000
          2.600000000000e+001 0.000000000000e+000 0.000000000000e+000
          2.600000000000e+001 2.500000000000e+000 0.000000000000e+000
          2.600000000000e+001 5.000000000000e+000 0.000000000000e+000
          2.600000000000e+001 7.500000000000e+000 0.000000000000e+000
          2.600000000000e+001 1.000000000000e+001 0.000000000000e+000
          2.600000000000e+001 1.250000000000e+001 0.000000000000e+000
          2.600000000000e+001 1.500000000000e+001 0.000000000000e+000
          2.600000000000e+001 1.750000000000e+001 0.000000000000e+000
          2.600000000000e+001 2.000000000000e+001 0.000000000000e+000
          2.800000000000e+001 0.000000000000e+000 0.000000000000e+000
          2.800000000000e+001 2.500000000000e+000 0.000000000000e+000
          2.800000000000e+001 5.000000000000e+000 0.000000000000e+000
          2.800000000000e+001 7.500000000000e+000 0.000000000000e+000
          2.800000000000e+001 1.000000000000e+001 0.000000000000e+000
          2.800000000000e+001 1.250000000000e+001 0.000000000000e+000
          2.800000000000e+001 1.500000000000e+001 0.000000000000e+000
          2.800000000000e+001 1.750000000000e+001 0.000000000000e+000
          2.800000000000e+001 2.000000000000e+001 0.000000000000e+000
          3.000000000000e+001 0.000000000000e+000 0.000000000000e+000
          3.000000000000e+001 2.500000000000e+000 0.000000000000e+000
          3.000000000000e+001 5.000000000000e+000 0.000000000000e+000
          3.000000000000e+001 7.500000000000e+000 0.000000000000e+000
[...]
      <PointData Scalars="CAPILLARY_PRESSURE">
        <DataArray type="Float64" Name="CAPILLARY_PRESSURE" format="ascii">
          3.325954356503e+005 3.303910267824e+005 3.303910267824e+005 3.325954356503e+005 3.303910267824e+005 3.325954356503e+005 3.303910267824e+005 3.325954356503e+005 3.303910267824e+005 3.325954356503e+005 3.303910267824e+005 3.325954356503e+005 3.303910267824e+005 3.325954356503e+005 3.303910267824e+005 3.325954356503e+005 3.303910267824e+005 3.325954356503e+005 3.281933336748e+005 3.281933336748e+005 3.281933336748e+005 3.281933336748e+005 3.281933336748e+005 3.281933336748e+005 3.281933336748e+005 3.281933336748e+005 3.281933336748e+005 3.260018464070e+005 3.260018464070e+005 3.260018464070e+005 3.260018464070e+005 3.260018464070e+005 3.260018464070e+005 3.260018464070e+005 3.260018464070e+005 3.260018464070e+005 3.238160726449e+005 3.238160726449e+005 3.238160726449e+005 3.238160726449e+005 3.238160726449e+005 3.238160726449e+005 3.238160726449e+005 3.238160726449e+005 3.238160726449e+005 3.216355598177e+005 3.216355598177e+005 3.216355598177e+005 3.216355598177e+005 3.216355598177e+005 3.216355598177e+005 3.216355598177e+005 3.216355598177e+005 3.216355598177e+005 3.194598481458e+005 3.194598481458e+005 3.194598481458e+005 3.194598481458e+005 3.194598481458e+005 3.194598481458e+005 3.194598481458e+005 3.194598481458e+005 3.194598481458e+005 3.172884517031e+005 3.172884517031e+005 3.172884517031e+005 3.172884517031e+005 3.172884517031e+005 3.172884517031e+005 3.172884517031e+005 3.172884517031e+005 3.172884517031e+005 3.151208622399e+005 3.151208622399e+005 3.151208622399e+005 3.151208622399e+005 3.151208622399e+005 3.151208622399e+005 3.151208622399e+005 3.151208622399e+005 3.151208622399e+005 3.129565517651e+005 3.129565517651e+005 3.129565517651e+005 3.129565517651e+005 3.129565517651e+005 3.129565517651e+005 3.129565517651e+005 3.129565517651e+005 3.129565517651e+005 3.107949726033e+005 3.107949726033e+005 3.107949726033e+005 3.107949726033e+005 3.107949726033e+005 3.107949726033e+005 3.107949726033e+005 3.107949726033e+005 3.107949726033e+005 3.086355565187e+005 3.086355565187e+005 3.086355565187e+005 3.086355565187e+005 3.086355565187e+005 3.086355565187e+005 3.086355565187e+005 3.086355565187e+005 3.086355565187e+005 3.064777129817e+005 3.064777129817e+005 3.064777129817e+005 3.064777129817e+005 3.064777129817e+005 3.064777129817e+005 3.064777129817e+005 3.064777129817e+005 3.064777129817e+005 3.043208270878e+005 3.043208270878e+005 3.043208270878e+005 3.043208270878e+005 3.043208270878e+005 3.043208270878e+005 3.043208270878e+005 3.043208270878e+005 3.043208270878e+005 3.021642574700e+005 3.021642574700e+005 3.021642574700e+005 3.021642574700e+005 3.021642574700e+005 3.021642574700e+005 3.021642574700e+005 3.021642574700e+005 3.021642574700e+005 3.000073343270e+005 3.000073343270e+005 3.000073343270e+005 3.000073343270e+005 3.000073343270e+005 3.000073343270e+005 3.000073343270e+005 3.000073343270e+005 3.000073343270e+005 2.978493575395e+005 2.978493575395e+005 2.978493575395e+005 2.978493575395e+005 2.978493575395e+005 2.978493575395e+005 2.978493575395e+005 2.978493575395e+005 2.978493575395e+005 2.956895947912e+005 2.956895947912e+005 2.956895947912e+005 2.956895947912e+005 2.956895947912e+005 2.956895947912e+005 2.956895947912e+005 2.956895947912e+005 2.956895947912e+005 2.935272796211e+005 2.935272796211e+005 2.935272796211e+005 2.935272796211e+005 2.935272796211e+005 2.935272796211e+005 2.935272796211e+005 2.935272796211e+005 2.935272796211e+005 2.913616093572e+005 2.913616093572e+005 2.913616093572e+005 2.913616093572e+005 2.913616093572e+005 2.913616093572e+005 2.913616093572e+005 2.913616093572e+005 2.913616093572e+005 2.891917428941e+005 2.891917428941e+005 2.891917428941e+005 2.891917428941e+005 2.891917428941e+005 2.891917428941e+005 2.891917428941e+005 2.891917428941e+005 2.891917428941e+005 2.870167982889e+005 2.870167982889e+005 2.870167982889e+005 2.870167982889e+005 2.870167982889e+005 2.870167982889e+005 2.870167982889e+005 2.870167982889e+005 2.870167982889e+005 2.848358501486e+005 2.848358501486e+005 2.848358501486e+005 2.848358501486e+005 2.848358501486e+005 2.848358501486e+005 2.848358501486e+005 2.848358501486e+005 2.848358501486e+005 2.826479267839e+005 2.826479267839e+005 2.826479267839e+005 2.826479267839e+005 2.826479267839e+005 2.826479267839e+005 2.826479267839e+005 2.826479267839e+005 2.826479267839e+005 2.804520071049e+005 2.804520071049e+005 2.804520071049e+005 2.804520071049e+005 2.804520071049e+005 2.804520071049e+005 2.804520071049e+005 2.804520071049e+005 2.804520071049e+005 2.782470172266e+005 2.782470172266e+005 2.782470172266e+005 2.782470172266e+005 2.782470172266e+005 2.782470172266e+005 2.782470172266e+005 2.782470172266e+005 2.782470172266e+005 2.760318267542e+005 2.760318267542e+005 2.760318267542e+005 2.760318267542e+005 2.760318267542e+005 2.760318267542e+005 2.760318267542e+005 2.760318267542e+005 2.760318267542e+005 2.738052447100e+005 2.738052447100e+005 2.738052447100e+005 2.738052447100e+005 2.738052447100e+005 2.738052447100e+005 2.738052447100e+005 2.738052447100e+005 2.738052447100e+005 2.715660150606e+005 2.715660150606e+005 2.715660150606e+005 2.715660150606e+005 2.715660150606e+005 2.715660150606e+005 2.715660150606e+005 2.715660150606e+005 2.715660150606e+005 2.693128117978e+005 2.693128117978e+005 2.693128117978e+005 2.693128117977e+005 2.693128117977e+005 2.693128117977e+005 2.693128117977e+005 2.693128117977e+005 2.693128117977e+005 2.670442335171e+005 2.670442335171e+005 2.670442335171e+005 2.670442335171e+005 2.670442335171e+005 2.670442335171e+005 2.670442335171e+005 2.670442335171e+005 2.670442335171e+005 2.647587974350e+005 2.647587974350e+005 2.647587974350e+005 2.647587974350e+005 2.647587974350e+005 2.647587974350e+005 2.647587974350e+005 2.647587974350e+005 2.647587974350e+005 2.624549327696e+005 2.624549327696e+005 2.624549327696e+005 2.624549327696e+005 2.624549327696e+005 2.624549327696e+005 2.624549327696e+005 2.624549327696e+005 2.624549327696e+005 2.601309734058e+005 2.601309734058e+005 2.601309734058e+005 2.601309734058e+005 2.601309734058e+005 2.601309734058e+005 2.601309734058e+005 2.601309734058e+005 2.601309734058e+005 2.577851497476e+005 2.577851497476e+005 2.577851497476e+005 2.577851497476e+005 2.577851497476e+005 2.577851497476e+005 2.577851497476e+005 2.577851497476e+005 2.577851497476e+005 2.554155796474e+005 2.554155796474e+005 2.554155796474e+005 2.554155796474e+005 2.554155796474e+005 2.554155796474e+005 2.554155796474e+005 2.554155796474e+005 2.554155796474e+005 2.530202582837e+005 2.530202582837e+005 2.530202582837e+005 2.530202582837e+005 2.530202582837e+005 2.530202582837e+005 2.530202582837e+005 2.530202582837e+005 2.530202582837e+005 2.505970468357e+005 2.505970468357e+005 2.505970468357e+005 2.505970468357e+005 2.505970468357e+005 2.505970468357e+005 2.505970468357e+005 2.505970468357e+005 2.505970468357e+005 2.481436597784e+005 2.481436597784e+005 2.481436597784e+005 2.481436597784e+005 2.481436597784e+005 2.481436597784e+005 2.481436597784e+005 2.481436597784e+005 2.481436597784e+005 2.456576505900e+005 2.456576505900e+005 2.456576505900e+005 2.456576505900e+005 2.456576505900e+005 2.456576505900e+005 2.456576505900e+005 2.456576505900e+005 2.456576505900e+005 2.431363956248e+005 2.431363956248e+005 2.431363956248e+005 2.431363956248e+005 2.431363956248e+005 2.431363956248e+005 2.431363956248e+005 2.431363956248e+005 2.431363956248e+005 2.405770758602e+005 2.405770758602e+005 2.405770758602e+005 2.405770758602e+005 2.405770758602e+005 2.405770758602e+005 2.405770758602e+005 2.405770758602e+005 2.405770758602e+005 2.379766561687e+005 2.379766561687e+005 2.379766561687e+005 2.379766561687e+005 2.379766561687e+005 2.379766561687e+005 2.379766561687e+005 2.379766561687e+005 2.379766561687e+005 2.353318616974e+005 2.353318616974e+005 2.353318616974e+005 2.353318616974e+005 2.353318616974e+005 2.353318616974e+005 2.353318616974e+005 2.353318616974e+005 2.353318616974e+005 2.326391508504e+005 2.326391508504e+005 2.326391508504e+005 2.326391508504e+005 2.326391508504e+005 2.326391508504e+005 2.326391508504e+005 2.326391508504e+005 2.326391508504e+005 2.298946842660e+005 2.298946842660e+005 2.298946842660e+005 2.298946842660e+005 2.298946842660e+005 2.298946842660e+005 2.298946842660e+005 2.298946842660e+005 2.298946842660e+005 2.270942890412e+005 2.270942890412e+005 2.270942890412e+005 2.270942890412e+005 2.270942890412e+005 2.270942890412e+005 2.270942890412e+005 2.270942890412e+005 2.270942890412e+005 2.242334172927e+005 2.242334172927e+005 2.242334172927e+005 2.242334172927e+005 2.242334172927e+005 2.242334172927e+005 2.242334172927e+005 2.242334172927e+005 2.242334172927e+005 2.213070979208e+005 2.213070979208e+005 2.213070979208e+005 2.213070979208e+005 2.213070979208e+005 2.213070979208e+005 2.213070979208e+005 2.213070979208e+005 2.213070979208e+005 2.183098801726e+005 2.183098801726e+005 2.183098801726e+005 2.183098801726e+005 2.183098801726e+005 2.183098801726e+005 2.183098801726e+005 2.183098801726e+005 2.183098801726e+005 2.152357672379e+005 2.152357672379e+005 2.152357672379e+005 2.152357672379e+005 2.152357672379e+005 2.152357672379e+005 2.152357672379e+005 2.152357672379e+005 2.152357672379e+005 2.120781376497e+005 2.120781376497e+005 2.120781376497e+005 2.120781376497e+005 2.120781376497e+005 2.120781376497e+005 2.120781376497e+005 2.120781376497e+005 2.120781376497e+005 2.088296516495e+005 2.088296516495e+005 2.088296516495e+005 2.088296516495e+005 2.088296516495e+005 2.088296516495e+005 2.088296516495e+005 2.088296516495e+005 2.088296516495e+005 2.054821388674e+005 2.054821388674e+005 2.054821388674e+005 2.054821388674e+005 2.054821388674e+005 2.054821388674e+005 2.054821388674e+005 2.054821388674e+005 2.054821388674e+005 2.020264625883e+005 2.020264625883e+005 2.020264625883e+005 2.020264625883e+005 2.020264625883e+005 2.020264625883e+005 2.020264625883e+005 2.020264625883e+005 2.020264625883e+005 1.984523544005e+005 1.984523544005e+005 1.984523544005e+005 1.984523544005e+005 1.984523544005e+005 1.984523544005e+005 1.984523544005e+005 1.984523544005e+005 1.984523544005e+005 1.947482110069e+005 1.947482110069e+005 1.947482110069e+005 1.947482110069e+005 1.947482110069e+005 1.947482110069e+005 1.947482110069e+005 1.947482110069e+005 1.947482110069e+005 1.909008421522e+005 1.909008421522e+005 1.909008421522e+005 1.909008421522e+005 1.909008421522e+005 1.909008421522e+005 1.909008421522e+005 1.909008421522e+005 1.909008421522e+005 1.868951546024e+005 1.868951546024e+005 1.868951546024e+005 1.868951546024e+005 1.868951546024e+005 1.868951546024e+005 1.868951546024e+005 1.868951546024e+005 1.868951546024e+005 1.827137513019e+005 1.827137513019e+005 1.827137513019e+005 1.827137513019e+005 1.827137513019e+005 1.827137513019e+005 1.827137513019e+005 1.827137513019e+005 1.827137513019e+005 1.783364162611e+005 1.783364162611e+005 1.783364162611e+005 1.783364162612e+005 1.783364162612e+005 1.783364162612e+005 1.783364162612e+005 1.783364162612e+005 1.783364162612e+005 1.737394428489e+005 1.737394428489e+005 1.737394428489e+005 1.737394428489e+005 1.737394428489e+005 1.737394428489e+005 1.737394428489e+005 1.737394428489e+005 1.737394428489e+005 1.688947432712e+005 1.688947432712e+005 1.688947432713e+005 1.688947432713e+005 1.688947432713e+005 1.688947432713e+005 1.688947432713e+005 1.688947432713e+005 1.688947432713e+005 1.637686453848e+005 1.637686453848e+005 1.637686453848e+005 1.637686453848e+005 1.637686453848e+005 1.637686453848e+005 1.637686453848e+005 1.637686453848e+005 1.637686453848e+005 1.583202314176e+005 1.583202314176e+005 1.583202314176e+005 1.583202314176e+005 1.583202314176e+005 1.583202314177e+005 1.583202314177e+005 1.583202314177e+005 1.583202314177e+005 1.524989881881e+005 1.524989881881e+005 1.524989881881e+005 1.524989881881e+005 1.524989881881e+005 1.524989881882e+005 1.524989881882e+005 1.524989881882e+005 1.524989881882e+005 1.462413952219e+005 1.462413952219e+005 1.462413952219e+005 1.462413952219e+005 1.462413952219e+005 1.462413952220e+005 1.462413952220e+005 1.462413952220e+005 1.462413952220e+005 1.394658272210e+005 1.394658272211e+005 1.394658272211e+005 1.394658272211e+005 1.394658272211e+005 1.394658272212e+005 1.394658272212e+005 1.394658272212e+005 1.394658272212e+005 1.320646694654e+005 1.320646694653e+005 1.320646694653e+005 1.320646694653e+005 1.320646694654e+005 1.320646694654e+005 1.320646694654e+005 1.320646694655e+005 1.320646694654e+005 1.238916293872e+005 1.238916293876e+005 1.238916293876e+005 1.238916293876e+005 1.238916293876e+005 1.238916293877e+005 1.238916293877e+005 1.238916293878e+005 1.238916293878e+005 1.147401657920e+005 1.147401657913e+005 1.147401657916e+005 1.147401657918e+005 1.147401657918e+005 1.147401657919e+005 1.147401657920e+005 1.147401657921e+005 1.147401657920e+005 1.043044576605e+005 1.043044576618e+005 1.043044576609e+005 1.043044576611e+005 1.043044576621e+005 1.043044576615e+005 1.043044576619e+005 1.043044576619e+005 1.043044576620e+005 9.210300920713e+004 9.210300920408e+004 9.210300920669e+004 9.210300920651e+004 9.210300920234e+004 9.210300920643e+004 9.210300920455e+004 9.210300920479e+004 9.210300920497e+004 7.730947578856e+004 7.730947580071e+004 7.730947579333e+004 7.730947579278e+004 7.730947581292e+004 7.730947579612e+004 7.730947580506e+004 7.730947580433e+004 7.730947580386e+004 5.833325116401e+004 5.833325110844e+004 5.833325114252e+004 5.833325115421e+004 5.833325107899e+004 5.833325114988e+004 5.833325111639e+004 5.833325112190e+004 5.833325112188e+004 3.170797612427e+004 3.170797639337e+004 3.170797624604e+004 3.170797621172e+004 3.170797650973e+004 3.170797624196e+004 3.170797637693e+004 3.170797635263e+004 3.170797636324e+004 -7.364339953930e+003 -7.364341703221e+003 -7.364340687410e+003 -7.364340514525e+003 -7.364342078652e+003 -7.364340554957e+003 -7.364341340640e+003 -7.364341136754e+003 -7.364341233627e+003 -5.005742093825e+004 -5.005742233339e+004 -5.005742237098e+004 -5.005742093782e+004 -5.005742192675e+004 -5.005742202536e+004 -5.005742297968e+004 -5.005742131734e+004 -5.005742148255e+004 -9.260645787566e+004 -9.260645664070e+004 -9.260645661428e+004 -9.260645763618e+004 -9.260645597174e+004 -9.260645656408e+004 -9.260645647487e+004 -9.260645590080e+004 -9.260645541857e+004 -1.350066270348e+005 -1.350066281420e+005 -1.350066264028e+005 -1.350066268130e+005 -1.350066264291e+005 -1.350066270019e+005 -1.350066269373e+005 -1.350066257571e+005 -1.350066269533e+005 -1.772561062695e+005 -1.772561033061e+005 -1.772561025398e+005 -1.772561038755e+005 -1.772561028442e+005 -1.772561019518e+005 -1.772561024540e+005 -1.772561018441e+005 -1.772561032015e+005 -2.193576252031e+005 -2.193576221548e+005 -2.193576206089e+005 -2.193576218629e+005 -2.193576218916e+005 -2.193576221022e+005 -2.193576218406e+005 -2.193576222647e+005 -2.193576201677e+005 -2.613173794383e+005 -2.613173783692e+005 -2.613173770016e+005 -2.613173777930e+005 -2.613173782939e+005 -2.613173780445e+005 -2.613173781532e+005 -2.613173768667e+005 -2.613173768416e+005 -3.031418996006e+005 -3.031418976604e+005 -3.031418964393e+005 -3.031418967351e+005 -3.031418962040e+005 -3.031418946662e+005 -3.031418963835e+005 -3.031418957886e+005 -3.031418952481e+005 -3.448373839085e+005 -3.448373810362e+005 -3.448373803244e+005 -3.448373784479e+005 -3.448373785013e+005 -3.448373781947e+005 -3.448373784248e+005 -3.448373770796e+005 -3.448373763503e+005 -3.864099346544e+005 -3.864099337138e+005 -3.864099326630e+005 -3.864099312677e+005 -3.864099306376e+005 -3.864099297234e+005 -3.864099298058e+005 -3.864099283969e+005 -3.864099289140e+005 -4.278657528485e+005 -4.278657526932e+005 -4.278657505107e+005 -4.278657517875e+005 -4.278657494638e+005 -4.278657490103e+005 -4.278657487123e+005 -4.278657475583e+005 -4.278657464597e+005 -4.692112458634e+005 -4.692112448692e+005 -4.692112457944e+005 -4.692112435037e+005 -4.692112431629e+005 -4.692112419943e+005 -4.692112417534e+005 -4.692112415502e+005 -4.692112404736e+005 -5.104531007663e+005 -5.104531023421e+005 -5.104531016985e+005 -5.104531015088e+005 -5.104531000655e+005 -5.104530996239e+005 -5.104530987580e+005 -5.104530973566e+005 -5.104530966796e+005 -5.515983067094e+005 -5.515983085875e+005 -5.515983093132e+005 -5.515983078410e+005 -5.515983062221e+005 -5.515983063164e+005 -5.515983047377e+005 -5.515983033833e+005 -5.515983032247e+005 -5.926541181219e+005 -5.926541204574e+005 -5.926541203072e+005 -5.926541202680e+005 -5.926541192901e+005 -5.926541175096e+005 -5.926541163143e+005 -5.926541160155e+005 -5.926541153382e+005 -6.336280200576e+005 -6.336280181149e+005 -6.336280189745e+005 -6.336280189051e+005 -6.336280185859e+005 -6.336280160214e+005 -6.336280149946e+005 -6.336280157911e+005 -6.336280154597e+005 -6.745276608006e+005 -6.745276602336e+005 -6.745276599950e+005 -6.745276598958e+005 -6.745276589236e+005 -6.745276566838e+005 -6.745276573262e+005 -6.745276566930e+005 -6.745276570234e+005 -7.153608280587e+005 -7.153608272807e+005 -7.153608272310e+005 -7.153608257996e+005 -7.153608256455e+005 -7.153608245989e+005 -7.153608243187e+005 -7.153608237272e+005 -7.153608244351e+005 -7.561353978398e+005 -7.561353969387e+005 -7.561353973083e+005 -7.561353969396e+005 -7.561353958029e+005 -7.561353956821e+005 -7.561353950605e+005 -7.561353949898e+005 -7.561353937960e+005 -7.968593155631e+005 -7.968593162337e+005 -7.968593170085e+005 -7.968593165468e+005 -7.968593158094e+005 -7.968593161086e+005 -7.968593154581e+005 -7.968593154916e+005 -7.968593152181e+005 -8.375405798381e+005 -8.375405806087e+005 -8.375405811516e+005 -8.375405805662e+005 -8.375405805198e+005 -8.375405807411e+005 -8.375405799246e+005 -8.375405804554e+005 -8.375405805253e+005 -8.781872202569e+005 -8.781872203707e+005 -8.781872207139e+005 -8.781872208390e+005 -8.781872196954e+005 -8.781872195345e+005 -8.781872198383e+005 -8.781872201037e+005 -8.781872199461e+005 -9.188072885429e+005 -9.188072893651e+005 -9.188072899968e+005 -9.188072899238e+005 -9.188072896189e+005 -9.188072889402e+005 -9.188072889398e+005 -9.188072891097e+005 -9.188072892219e+005 -9.594088571467e+005 -9.594088575786e+005 -9.594088578304e+005 -9.594088576802e+005 -9.594088577732e+005 -9.594088573139e+005 -9.594088573134e+005 -9.594088574771e+005 -9.594088573192e+005 -1.000000000000e+006 -1.000000000000e+006 -1.000000000000e+006 -1.000000000000e+006 -1.000000000000e+006 -1.000000000000e+006 -1.000000000000e+006 -1.000000000000e+006 -1.000000000000e+006 
        </DataArray>
        <DataArray type="Float64" Name="NONWET_PRESSURE" format="ascii">