<?xml version="1.0"?>
<VTKFile type="UnstructuredGrid" version="0.1" byte_order="LittleEndian">
  <UnstructuredGrid>
    <Piece NumberOfPoints="909" NumberOfCells="800">
      <Points>
        <DataArray type="Float64" NumberOfComponents="3" format="ascii">
          0.000000000000e+000 0.000000000000e+000 0.000000000000e+000
          2.000000000000e+000 0.000000000000e+000 0.000000000000e+000
          2.000000000000e+000 2.500000000000e+000 0.000000000000e+000
          0.000000000000e+000 2.500000000000e+000 0.000000000000e+000
          2.000000000000e+000 5.000000000000e+000 0.000000000000e+000
          0.000000000000e+000 5.000000000000e+000 0.000000000000e+000
          2.000000000000e+000 7.500000000000e+000 0.000000000000e+000
          0.000000000000e+000 7.500000000000e+000 0.000000000000e+000
          2.000000000000e+000 1.000000000000e+001 0.000000000000e+000
          0.000000000000e+000 1.000000000000e+001 0.000000000000e+000
          2.000000000000e+000 1.250000000000e+001 0.000000000000e+000
          0.000000000000e+000 1.250000000000e+001 0.000000000000e+000
          2.000000000000e+000 1.500000000000e+001 0.000000000000e+000
          0.000000000000e+000 1.500000000000e+001 0.000000000000e+000
          2.000000000000e+000 1.750000000000e+001 0.000000000000e+000
          0.000000000000e+000 1.750000000000e+001 0.000000000000e+000
          2.000000000000e+000 2.000000000000e+001 0.000000000000e+000
          0.000000000000e+000 2.000000000000e+001 0.000000000000e+000
          4.000000000000e+000 0.000000000000e+000 0.000000000000e+000
          4.000000000000e+000 2.500000000000e+000 0.000000000000e+000
          4.000000000000e+000 5.000000000000e+000 0.000000000000e+000
          4.000000000000e+000 7.500000000000e+000 0.000000000000e+000
          4.000000000000e+000 1.000000000000e+001 0.000000000000e+000
          4.000000000000e+000 1.250000000000e+001 0.000000000000e+000
          4.000000000000e+000 1.500000000000e+001 0.000000000000e+000
          4.000000000000e+000 1.750000000000e+001 0.000000000000e+000
          4.000000000000e+000 2.000000000000e+001 0.000000000000e+000
          6.000000000000e+000 0.000000000000e+000 0.000000000000e+000
          6.000000000000e+000 2.500000000000e+000 0.000000000000e+000
          6.000000000000e+000 5.000000000000e+000 0.000000000000e+000
          6.000000000000e+000 7.500000000000e+000 0.000000000000e+000
          6.000000000000e+000 1.000000000000e+001 0.000000000000e+000
          6.000000000000e+000 1.250000000000e+001 0.000000000000e+000
          6.000000000000e+000 1.500000000000e+001 0.000000000000e+000
          6.000000000000e+000 1.750000000000e+001 0.000000000000e+000
          6.000000000000e+000 2.000000000000e+001 0.000000000000e+000
          8.000000000000e+000 0.000000000000e+000 0.000000000000e+000
          8.000000000000e+000 2.500000000000e+000 0.000000000000e+000
          8.000000000000e+000 5.000000000000e+000 0.000000000000e+000
          8.000000000000e+000 7.500000000000e+000 0.000000000000e+000
          8.000000000000e+000 1.000000000000e+001 0.000000000000e+000
          8.000000000000e+000 1.250000000000e+001 0.000000000000e+000
          8.000000000000e+000 1.500000000000e+001 0.000000000000e+000
          8.000000000000e+000 1.750000000000e+001 0.000000000000e+000
          8.000000000000e+000 2.000000000000e+001 0.000000000000e+000
          1.000000000000e+001 0.000000000000e+000 0.000000000000e+000
          1.000000000000e+001 2.500000000000e+000 0.000000000000e+000
          1.000000000000e+001 5.000000000000e+000 0.000000000000e+000
          1.000000000000e+001 7.500000000000e+000 0.000000000000e+000
          1.000000000000e+001 1.000000000000e+001 0.000000000000e+000
          1.000000000000e+001 1.250000000000e+001 0.000000000000e+000
          1.000000000000e+001 1.500000000000e+001 0.000000000000e+000
          1.000000000000e+001 1.750000000000e+001 0.000000000000e+000
          1.000000000000e+001 2.000000000000e+001 0.000000000000e+000
          1.200000000000e+001 0.000000000000e+000 0.000000000000e+000
          1.200000000000e+001 2.500000000000e+000 0.000000000000e+000
          1.200000000000e+001 5.000000000000e+000 0.000000000000e+000
          1.200000000000e+001 7.500000000000e+000 0.000000000000e+000
          1.200000000000e+001 1.000000000000e+001 0.000000000000e+000
          1.200000000000e+001 1.250000000000e+001 0.000000000000e+000
          1.200000000000e+001 1.500000000000e+001 0.000000000000e+000
          1.200000000000e+001 1.750000000000e+001 0.000000000000e+000
          1.200000000000e+001 2.000000000000e+001 0.000000000000e+000
          1.400000000000e+001 0.000000000000e+000 0.000000000000e+000
          1.400000000000e+001 2.500000000000e+000 0.000000000000e+000
          1.400000000000e+001 5.000000000000e+000 0.000000000000e+000
          1.400000000000e+001 7.500000000000e+000 0.000000000000e+000
          1.400000000000e+001 1.000000000000e+001 0.000000000000e+000
          1.400000000000e+001 1.250000000000e+001 0.000000000000e+000
          1.400000000000e+001 1.500000000000e+001 0.000000000000e+000
          1.400000000000e+001 1.750000000000e+001 0.000000000000e+000
          1.400000000000e+001 2.000000000000e+001 0.000000000000e+000
          1.600000000000e+001 0.000000000000e+000 0.000000000000e+000
          1.600000000000e+001 2.500000000000e+000 0.000000000000e+000
          1.600000000000e+001 5.000000000000e+000 0.000000000000e+000
          1.600000000000e+001 7.500000000000e+000 0.000000000000e+000
          1.600000000000e+001 1.000000000000e+001 0.000000000000e+000
          1.600000000000e+001 1.250000000000e+001 0.000000000000e+000
          1.600000000000e+001 1.500000000000e+001 0.000000000000e+000
          1.600000000000e+001 1.750000000000e+001 0.000000000000e+000
          1.600000000000e+001 2.000000000000e+001 0.000000000000e+000
          1.800000000000e+001 0.000000000000e+000 0.000000000000e+000
          1.800000000000e+001 2.500000000000e+000 0.000000000000e+000
          1.800000000000e+001 5.000000000000e+000 0.000000000000e+000
          1.800000000000e+001 7.500000000000e+000 0.000000000000e+000
          1.800000000000e+001 1.000000000000e+001 0.000000000000e+000
          1.800000000000e+001 1.250000000000e+001 0.000000000000e+000
          1.800000000000e+001 1.500000000000e+001 0.000000000000e+000
          1.800000000000e+001 1.750000000000e+001 0.000000000000e+000
          1.800000000000e+001 2.000000000000e+001 0.000000000000e+000
          2.000000000000e+001 0.000000000000e+000 0.000000000000e+000
          2.000000000000e+001 2.500000000000e+000 0.000000000000e+000
          2.000000000000e+001 5.000000000000e+000 0.000000000000e+000
          2.000000000000e+001 7.500000000000e+000 0.000000000000e+000
          2.000000000000e+001 1.000000000000e+001 0.000000000000e+000
          2.000000000000e+001 1.250000000000e+001 0.000000000000e+000
          2.000000000000e+001 1.500000000000e+001 0.000000000000e+000
          2.000000000000e+001 1.750000000000e+001 0.000000000000e+000
          2.000000000000e+001 2.000000000000e+001 0.000000000000e+000
          2.200000000000e+001 0.000000000000e+000 0.000000000000e+000
          2.200000000000e+001 2.500000000000e+000 0.000000000000e+000
          2.200000000000e+001 5.000000000000e+000 0.000000000000e+000
          2.200000000000e+001 7.500000000000e+000 0.000000000000e+000
          2.200000000000e+001 1.000000000000e+001 0.000000000000e+000
          2.200000000000e+001 1.250000000000e+001 0.000000000000e+000
          2.200000000000e+001 1.500000000000e+001 0.000000000000e+000
          2.200000000000e+001 1.750000000000e+001 0.000000000000e+000
          2.200000000000e+001 2.000000000000e+001 0.000000000000e+000
          2.400000000000e+001 0.000000000000e+000 0.000000000000e+000
          2.400000000000e+001 2.500000000000e+000 0.000000000000e+000
          2.400000000000e+001 5.000000000000e+000 0.000000000000e+000
          2.400000000000e+001 7.500000000000e+000 0.000000000000e+000
          2.400000000000e+001 1.000000000000e+001 0.000000000000e+000
          2.400000000000e+001 1.250000000000e+001 0.000000000000e+000
          2.400000000000e+001 1.500000000000e+001 0.000000000000e+000
          2.400000000000e+001 1.750000000000e+001 0.000000000000e+000
          2.400000000000e+001 2.000000000000e+001 0.000000000000e+000
          2.600000000000e+001 0.000000000000e+000 0.000000000000e+000
          2.600000000000e+001 2.500000000000e+000 0.000000000000e+000
          2.600000000000e+001 5.000000000000e+000 0.000000000000e+000
          2.600000000000e+001 7.500000000000e+000 0.000000000000e+000
          2.600000000000e+001 1.000000000000e+001 0.000000000000e+000
          2.600000000000e+001 1.250000000000e+001 0.000000000000e+000
          2.600000000000e+001 1.500000000000e+001 0.000000000000e+000
          2.600000000000e+001 1.750000000000e+001 0.000000000000e+000
          2.600000000000e+001 2.000000000000e+001 0.000000000000e+000
          2.800000000000e+001 0.000000000000e+000 0.000000000000e+000
          2.800000000000e+001 2.500000000000e+000 0.000000000000e+000
          2.800000000000e+001 5.000000000000e+000 0.000000000000e+000
          2.800000000000e+001 7.500000000000e+000 0.000000000000e+000
          2.800000000000e+001 1.000000000000e+001 0.000000000000e+000
          2.800000000000e+001 1.250000000000e+001 0.000000000000e+000
          2.800000000000e+001 1.500000000000e+001 0.000000000000e+000
          2.800000000000e+001 1.750000000000e+001 0.000000000000e+000
          2.800000000000e+001 2.000000000000e+001 0.000000000000e+000
          3.000000000000e+001 0.000000000000e+000 0.000000000000e+000
          3.000000000000e+001 2.500000000000e+000 0.000000000000e+000
          3.000000000000e+001 5.000000000000e+000 0.000000000000e+000
          3.000000000000e+001 7.500000000000e+000 0.000000000000e+000
[...]
      <PointData Scalars="CAPILLARY_PRESSURE">
        <DataArray type="Float64" Name="CAPILLARY_PRESSURE" format="ascii">
          3.857674761085e+005 3.839598610607e+005 3.839598610607e+005 3.857674761087e+005 3.839598610607e+005 3.857674761087e+005 3.839598610607e+005 3.857674761085e+005 3.839598610607e+005 3.857674761086e+005 3.839598610607e+005 3.857674761087e+005 3.839598610606e+005 3.857674761087e+005 3.839598610608e+005 3.857674761085e+005 3.839598610606e+005 3.857674761088e+005 3.821377440105e+005 3.821377440106e+005 3.821377440105e+005 3.821377440106e+005 3.821377440105e+005 3.821377440106e+005 3.821377440106e+005 3.821377440105e+005 3.821377440106e+005 3.803013955044e+005 3.803013955043e+005 3.803013955044e+005 3.803013955044e+005 3.803013955044e+005 3.803013955043e+005 3.803013955044e+005 3.803013955043e+005 3.803013955044e+005 3.784499111107e+005 3.784499111108e+005 3.784499111109e+005 3.784499111107e+005 3.784499111108e+005 3.784499111108e+005 3.784499111108e+005 3.784499111109e+005 3.784499111109e+005 3.765831509919e+005 3.765831509920e+005 3.765831509919e+005 3.765831509920e+005 3.765831509919e+005 3.765831509920e+005 3.765831509919e+005 3.765831509921e+005 3.765831509920e+005 3.747006466092e+005 3.747006466089e+005 3.747006466093e+005 3.747006466092e+005 3.747006466091e+005 3.747006466092e+005 3.747006466092e+005 3.747006466092e+005 3.747006466092e+005 3.728020599409e+005 3.728020599408e+005 3.728020599409e+005 3.728020599409e+005 3.728020599409e+005 3.728020599410e+005 3.728020599409e+005 3.728020599409e+005 3.728020599410e+005 3.708869844545e+005 3.708869844547e+005 3.708869844545e+005 3.708869844545e+005 3.708869844545e+005 3.708869844545e+005 3.708869844545e+005 3.708869844546e+005 3.708869844546e+005 3.689550060251e+005 3.689550060250e+005 3.689550060250e+005 3.689550060249e+005 3.689550060250e+005 3.689550060251e+005 3.689550060251e+005 3.689550060250e+005 3.689550060251e+005 3.670056920064e+005 3.670056920064e+005 3.670056920063e+005 3.670056920064e+005 3.670056920064e+005 3.670056920064e+005 3.670056920065e+005 3.670056920063e+005 3.670056920065e+005 3.650385910385e+005 3.650385910386e+005 3.650385910386e+005 3.650385910387e+005 3.650385910385e+005 3.650385910387e+005 3.650385910386e+005 3.650385910387e+005 3.650385910384e+005 3.630532336739e+005 3.630532336740e+005 3.630532336739e+005 3.630532336740e+005 3.630532336741e+005 3.630532336739e+005 3.630532336740e+005 3.630532336740e+005 3.630532336739e+005 3.610491316048e+005 3.610491316048e+005 3.610491316050e+005 3.610491316047e+005 3.610491316049e+005 3.610491316049e+005 3.610491316048e+005 3.610491316048e+005 3.610491316048e+005 3.590257766951e+005 3.590257766951e+005 3.590257766951e+005 3.590257766952e+005 3.590257766951e+005 3.590257766951e+005 3.590257766951e+005 3.590257766951e+005 3.590257766951e+005 3.569826399125e+005 3.569826399125e+005 3.569826399127e+005 3.569826399124e+005 3.569826399125e+005 3.569826399126e+005 3.569826399125e+005 3.569826399126e+005 3.569826399123e+005 3.549191701171e+005 3.549191701171e+005 3.549191701172e+005 3.549191701172e+005 3.549191701171e+005 3.549191701170e+005 3.549191701170e+005 3.549191701171e+005 3.549191701170e+005 3.528347927531e+005 3.528347927530e+005 3.528347927530e+005 3.528347927529e+005 3.528347927530e+005 3.528347927529e+005 3.528347927530e+005 3.528347927530e+005 3.528347927531e+005 3.507289084662e+005 3.507289084664e+005 3.507289084664e+005 3.507289084664e+005 3.507289084664e+005 3.507289084664e+005 3.507289084665e+005 3.507289084664e+005 3.507289084664e+005 3.486008916432e+005 3.486008916433e+005 3.486008916433e+005 3.486008916432e+005 3.486008916433e+005 3.486008916432e+005 3.486008916433e+005 3.486008916434e+005 3.486008916432e+005 3.464500888564e+005 3.464500888565e+005 3.464500888563e+005 3.464500888565e+005 3.464500888563e+005 3.464500888564e+005 3.464500888565e+005 3.464500888565e+005 3.464500888564e+005 3.442758172013e+005 3.442758172011e+005 3.442758172011e+005 3.442758172010e+005 3.442758172011e+005 3.442758172011e+005 3.442758172012e+005 3.442758172010e+005 3.442758172010e+005 3.420773625022e+005 3.420773625021e+005 3.420773625020e+005 3.420773625022e+005 3.420773625022e+005 3.420773625022e+005 3.420773625021e+005 3.420773625022e+005 3.420773625021e+005 3.398539773779e+005 3.398539773779e+005 3.398539773779e+005 3.398539773778e+005 3.398539773780e+005 3.398539773778e+005 3.398539773780e+005 3.398539773779e+005 3.398539773778e+005 3.376048791381e+005 3.376048791383e+005 3.376048791382e+005 3.376048791383e+005 3.376048791382e+005 3.376048791383e+005 3.376048791383e+005 3.376048791383e+005 3.376048791381e+005 3.353292475046e+005 3.353292475045e+005 3.353292475046e+005 3.353292475045e+005 3.353292475046e+005 3.353292475044e+005 3.353292475046e+005 3.353292475045e+005 3.353292475045e+005 3.330262221303e+005 3.330262221301e+005 3.330262221303e+005 3.330262221303e+005 3.330262221302e+005 3.330262221303e+005 3.330262221303e+005 3.330262221301e+005 3.330262221303e+005 3.306948999011e+005 3.306948999015e+005 3.306948999013e+005 3.306948999014e+005 3.306948999014e+005 3.306948999013e+005 3.306948999013e+005 3.306948999013e+005 3.306948999012e+005 3.283343319960e+005 3.283343319958e+005 3.283343319959e+005 3.283343319958e+005 3.283343319959e+005 3.283343319958e+005 3.283343319959e+005 3.283343319959e+005 3.283343319959e+005 3.259435206736e+005 3.259435206735e+005 3.259435206736e+005 3.259435206737e+005 3.259435206735e+005 3.259435206736e+005 3.259435206736e+005 3.259435206736e+005 3.259435206737e+005 3.235214157682e+005 3.235214157682e+005 3.235214157682e+005 3.235214157683e+005 3.235214157682e+005 3.235214157683e+005 3.235214157682e+005 3.235214157683e+005 3.235214157684e+005 3.210669108479e+005 3.210669108480e+005 3.210669108478e+005 3.210669108480e+005 3.210669108478e+005 3.210669108479e+005 3.210669108478e+005 3.210669108481e+005 3.210669108481e+005 3.185788390039e+005 3.185788390040e+005 3.185788390041e+005 3.185788390040e+005 3.185788390040e+005 3.185788390040e+005 3.185788390041e+005 3.185788390040e+005 3.185788390041e+005 3.160559682258e+005 3.160559682259e+005 3.160559682259e+005 3.160559682259e+005 3.160559682259e+005 3.160559682261e+005 3.160559682260e+005 3.160559682260e+005 3.160559682259e+005 3.134969963104e+005 3.134969963104e+005 3.134969963105e+005 3.134969963105e+005 3.134969963106e+005 3.134969963105e+005 3.134969963105e+005 3.134969963106e+005 3.134969963106e+005 3.109005452475e+005 3.109005452476e+005 3.109005452475e+005 3.109005452475e+005 3.109005452476e+005 3.109005452476e+005 3.109005452477e+005 3.109005452476e+005 3.109005452477e+005 3.082651550163e+005 3.082651550164e+005 3.082651550164e+005 3.082651550163e+005 3.082651550163e+005 3.082651550164e+005 3.082651550164e+005 3.082651550165e+005 3.082651550164e+005 3.055892767151e+005 3.055892767150e+005 3.055892767149e+005 3.055892767149e+005 3.055892767150e+005 3.055892767150e+005 3.055892767151e+005 3.055892767150e+005 3.055892767151e+005 3.028712649346e+005 3.028712649346e+005 3.028712649344e+005 3.028712649345e+005 3.028712649345e+005 3.028712649346e+005 3.028712649346e+005 3.028712649346e+005 3.028712649346e+005 3.001093692761e+005 3.001093692762e+005 3.001093692761e+005 3.001093692762e+005 3.001093692761e+005 3.001093692762e+005 3.001093692762e+005 3.001093692763e+005 3.001093692762e+005 2.973017248890e+005 2.973017248891e+005 2.973017248891e+005 2.973017248891e+005 2.973017248891e+005 2.973017248890e+005 2.973017248893e+005 2.973017248892e+005 2.973017248891e+005 2.944463418924e+005 2.944463418924e+005 2.944463418924e+005 2.944463418923e+005 2.944463418924e+005 2.944463418925e+005 2.944463418923e+005 2.944463418925e+005 2.944463418924e+005 2.915410935144e+005 2.915410935144e+005 2.915410935144e+005 2.915410935145e+005 2.915410935146e+005 2.915410935144e+005 2.915410935144e+005 2.915410935146e+005 2.915410935143e+005 2.885837027594e+005 2.885837027594e+005 2.885837027594e+005 2.885837027595e+005 2.885837027593e+005 2.885837027595e+005 2.885837027594e+005 2.885837027593e+005 2.885837027595e+005 2.855717273711e+005 2.855717273709e+005 2.855717273710e+005 2.855717273710e+005 2.855717273710e+005 2.855717273709e+005 2.855717273710e+005 2.855717273709e+005 2.855717273711e+005 2.825025428248e+005 2.825025428248e+005 2.825025428249e+005 2.825025428247e+005 2.825025428248e+005 2.825025428249e+005 2.825025428248e+005 2.825025428248e+005 2.825025428249e+005 2.793733230258e+005 2.793733230260e+005 2.793733230259e+005 2.793733230259e+005 2.793733230259e+005 2.793733230260e+005 2.793733230259e+005 2.793733230260e+005 2.793733230259e+005 2.761810183268e+005 2.761810183268e+005 2.761810183267e+005 2.761810183267e+005 2.761810183268e+005 2.761810183267e+005 2.761810183267e+005 2.761810183269e+005 2.761810183267e+005 2.729223304007e+005 2.729223304008e+005 2.729223304009e+005 2.729223304008e+005 2.729223304009e+005 2.729223304009e+005 2.729223304008e+005 2.729223304007e+005 2.729223304009e+005 2.695936834101e+005 2.695936834101e+005 2.695936834100e+005 2.695936834101e+005 2.695936834102e+005 2.695936834100e+005 2.695936834101e+005 2.695936834101e+005 2.695936834100e+005 2.661911907832e+005 2.661911907833e+005 2.661911907834e+005 2.661911907833e+005 2.661911907834e+005 2.661911907832e+005 2.661911907832e+005 2.661911907831e+005 2.661911907832e+005 2.627106167687e+005 2.627106167687e+005 2.627106167687e+005 2.627106167687e+005 2.627106167687e+005 2.627106167688e+005 2.627106167688e+005 2.627106167688e+005 2.627106167687e+005 2.591473317317e+005 2.591473317318e+005 2.591473317317e+005 2.591473317319e+005 2.591473317318e+005 2.591473317318e+005 2.591473317317e+005 2.591473317319e+005 2.591473317317e+005 2.554962599209e+005 2.554962599208e+005 2.554962599209e+005 2.554962599207e+005 2.554962599208e+005 2.554962599209e+005 2.554962599208e+005 2.554962599209e+005 2.554962599209e+005 2.517518181068e+005 2.517518181069e+005 2.517518181069e+005 2.517518181069e+005 2.517518181069e+005 2.517518181069e+005 2.517518181070e+005 2.517518181068e+005 2.517518181071e+005 2.479078430932e+005 2.479078430932e+005 2.479078430932e+005 2.479078430932e+005 2.479078430933e+005 2.479078430932e+005 2.479078430933e+005 2.479078430932e+005 2.479078430933e+005 2.439575055496e+005 2.439575055497e+005 2.439575055496e+005 2.439575055498e+005 2.439575055496e+005 2.439575055497e+005 2.439575055498e+005 2.439575055498e+005 2.439575055496e+005 2.398932069169e+005 2.398932069170e+005 2.398932069170e+005 2.398932069169e+005 2.398932069171e+005 2.398932069171e+005 2.398932069171e+005 2.398932069171e+005 2.398932069171e+005 2.357064551738e+005 2.357064551739e+005 2.357064551739e+005 2.357064551739e+005 2.357064551738e+005 2.357064551738e+005 2.357064551738e+005 2.357064551739e+005 2.357064551737e+005 2.313877139728e+005 2.313877139728e+005 2.313877139728e+005 2.313877139729e+005 2.313877139728e+005 2.313877139729e+005 2.313877139728e+005 2.313877139728e+005 2.313877139727e+005 2.269262178924e+005 2.269262178923e+005 2.269262178925e+005 2.269262178923e+005 2.269262178925e+005 2.269262178923e+005 2.269262178923e+005 2.269262178924e+005 2.269262178922e+005 2.223097441051e+005 2.223097441053e+005 2.223097441051e+005 2.223097441055e+005 2.223097441052e+005 2.223097441053e+005 2.223097441053e+005 2.223097441053e+005 2.223097441054e+005 2.175243273297e+005 2.175243273296e+005 2.175243273298e+005 2.175243273296e+005 2.175243273297e+005 2.175243273297e+005 2.175243273297e+005 2.175243273298e+005 2.175243273296e+005 2.125539000564e+005 2.125539000564e+005 2.125539000565e+005 2.125539000564e+005 2.125539000565e+005 2.125539000565e+005 2.125539000564e+005 2.125539000565e+005 2.125539000564e+005 2.073798331151e+005 2.073798331153e+005 2.073798331153e+005 2.073798331153e+005 2.073798331153e+005 2.073798331153e+005 2.073798331153e+005 2.073798331154e+005 2.073798331154e+005 2.019803417395e+005 2.019803417395e+005 2.019803417396e+005 2.019803417396e+005 2.019803417396e+005 2.019803417396e+005 2.019803417396e+005 2.019803417395e+005 2.019803417396e+005 1.963297076201e+005 1.963297076202e+005 1.963297076203e+005 1.963297076202e+005 1.963297076201e+005 1.963297076202e+005 1.963297076201e+005 1.963297076202e+005 1.963297076201e+005 1.903972438142e+005 1.903972438146e+005 1.903972438142e+005 1.903972438144e+005 1.903972438145e+005 1.903972438143e+005 1.903972438145e+005 1.903972438143e+005 1.903972438144e+005 1.841458879834e+005 1.841458879832e+005 1.841458879834e+005 1.841458879834e+005 1.841458879833e+005 1.841458879833e+005 1.841458879834e+005 1.841458879833e+005 1.841458879833e+005 1.775302366659e+005 1.775302366659e+005 1.775302366659e+005 1.775302366658e+005 1.775302366658e+005 1.775302366659e+005 1.775302366659e+005 1.775302366658e+005 1.775302366661e+005 1.704937144526e+005 1.704937144529e+005 1.704937144529e+005 1.704937144530e+005 1.704937144530e+005 1.704937144530e+005 1.704937144531e+005 1.704937144532e+005 1.704937144529e+005 1.629643894861e+005 1.629643894860e+005 1.629643894862e+005 1.629643894862e+005 1.629643894864e+005 1.629643894864e+005 1.629643894864e+005 1.629643894863e+005 1.629643894864e+005 1.548486511957e+005 1.548486511958e+005 1.548486511957e+005 1.548486511960e+005 1.548486511961e+005 1.548486511960e+005 1.548486511958e+005 1.548486511962e+005 1.548486511960e+005 1.460214099029e+005 1.460214099029e+005 1.460214099029e+005 1.460214099031e+005 1.460214099030e+005 1.460214099033e+005 1.460214099028e+005 1.460214099026e+005 1.460214099030e+005 1.363102547861e+005 1.363102547865e+005 1.363102547856e+005 1.363102547854e+005 1.363102547860e+005 1.363102547858e+005 1.363102547853e+005 1.363102547846e+005 1.363102547847e+005 1.254676099469e+005 1.254676099477e+005 1.254676099450e+005 1.254676099439e+005 1.254676099460e+005 1.254676099458e+005 1.254676099458e+005 1.254676099427e+005 1.254676099447e+005 1.131156732087e+005 1.131156732117e+005 1.131156732066e+005 1.131156732041e+005 1.131156732087e+005 1.131156732092e+005 1.131156732105e+005 1.131156732034e+005 1.131156732094e+005 9.862915108671e+004 9.862915109578e+004 9.862915109004e+004 9.862915108276e+004 9.862915109178e+004 9.862915109376e+004 9.862915109641e+004 9.862915108529e+004 9.862915109846e+004 8.087090633543e+004 8.087090635886e+004 8.087090635749e+004 8.087090634280e+004 8.087090635361e+004 8.087090635767e+004 8.087090636034e+004 8.087090634719e+004 8.087090637317e+004 5.744893013754e+004 5.744893018747e+004 5.744893019900e+004 5.744893017049e+004 5.744893017917e+004 5.744893018066e+004 5.744893018306e+004 5.744893016790e+004 5.744893021577e+004 2.247958996723e+004 2.247959007569e+004 2.247959011602e+004 2.247959006020e+004 2.247959005569e+004 2.247959004404e+004 2.247959004275e+004 2.247959002615e+004 2.247959011697e+004 -2.746396857105e+004 -2.746396726646e+004 -2.746396669731e+004 -2.746396739230e+004 -2.746396747242e+004 -2.746396769078e+004 -2.746396770588e+004 -2.746396790213e+004 -2.746396678023e+004 -7.876539280796e+004 -7.876539160298e+004 -7.876539030539e+004 -7.876539140008e+004 -7.876539208844e+004 -7.876539206015e+004 -7.876539230587e+004 -7.876539107925e+004 -7.876539084521e+004 -1.300356325088e+005 -1.300356306417e+005 -1.300356295492e+005 -1.300356299641e+005 -1.300356295485e+005 -1.300356281243e+005 -1.300356299326e+005 -1.300356293778e+005 -1.300356288738e+005 -1.812968276351e+005 -1.812968247945e+005 -1.812968241512e+005 -1.812968223690e+005 -1.812968225179e+005 -1.812968222952e+005 -1.812968225937e+005 -1.812968212882e+005 -1.812968205709e+005 -2.325474866389e+005 -2.325474857203e+005 -2.325474847086e+005 -2.325474833850e+005 -2.325474828237e+005 -2.325474819743e+005 -2.325474821085e+005 -2.325474807284e+005 -2.325474812543e+005 -2.837868240550e+005 -2.837868239102e+005 -2.837868217590e+005 -2.837868230815e+005 -2.837868208099e+005 -2.837868204037e+005 -2.837868201454e+005 -2.837868190135e+005 -2.837868179238e+005 -3.350149267111e+005 -3.350149257232e+005 -3.350149266716e+005 -3.350149244139e+005 -3.350149241096e+005 -3.350149229769e+005 -3.350149227643e+005 -3.350149225816e+005 -3.350149215084e+005 -3.862320256206e+005 -3.862320272021e+005 -3.862320265725e+005 -3.862320264055e+005 -3.862320249906e+005 -3.862320245731e+005 -3.862320237296e+005 -3.862320223421e+005 -3.862320216710e+005 -4.374381815362e+005 -4.374381834176e+005 -4.374381841539e+005 -4.374381826993e+005 -4.374381810975e+005 -4.374381812098e+005 -4.374381796449e+005 -4.374381783050e+005 -4.374381781522e+005 -4.886334212467e+005 -4.886334235841e+005 -4.886334234419e+005 -4.886334234161e+005 -4.886334224509e+005 -4.886334206821e+005 -4.886334194998e+005 -4.886334192103e+005 -4.886334185370e+005 -5.398178162152e+005 -5.398178142748e+005 -5.398178151398e+005 -5.398178150795e+005 -5.398178147702e+005 -5.398178122150e+005 -5.398178111972e+005 -5.398178119999e+005 -5.398178116709e+005 -5.909914288595e+005 -5.909914282934e+005 -5.909914280581e+005 -5.909914279666e+005 -5.909914270007e+005 -5.909914247685e+005 -5.909914254176e+005 -5.909914247883e+005 -5.909914251200e+005 -6.421543277468e+005 -6.421543269694e+005 -6.421543269230e+005 -6.421543254971e+005 -6.421543253477e+005 -6.421543243068e+005 -6.421543240304e+005 -6.421543234411e+005 -6.421543241514e+005 -6.933065748322e+005 -6.933065739321e+005 -6.933065743027e+005 -6.933065739378e+005 -6.933065728055e+005 -6.933065726886e+005 -6.933065720697e+005 -6.933065720012e+005 -6.933065708073e+005 -7.444482337404e+005 -7.444482344102e+005 -7.444482351865e+005 -7.444482347271e+005 -7.444482339926e+005 -7.444482342949e+005 -7.444482336471e+005 -7.444482336815e+005 -7.444482334089e+005 -7.955793723657e+005 -7.955793731365e+005 -7.955793736796e+005 -7.955793730968e+005 -7.955793730528e+005 -7.955793732758e+005 -7.955793724608e+005 -7.955793729934e+005 -7.955793730632e+005 -8.467000545689e+005 -8.467000546822e+005 -8.467000550260e+005 -8.467000551522e+005 -8.467000540109e+005 -8.467000538511e+005 -8.467000541562e+005 -8.467000544218e+005 -8.467000542647e+005 -8.978103420729e+005 -8.978103428952e+005 -8.978103435266e+005 -8.978103434545e+005 -8.978103431509e+005 -8.978103424733e+005 -8.978103424739e+005 -8.978103426442e+005 -8.978103427568e+005 -9.489103034046e+005 -9.489103038368e+005 -9.489103040890e+005 -9.489103039383e+005 -9.489103040314e+005 -9.489103035736e+005 -9.489103035736e+005 -9.489103037375e+005 -9.489103035800e+005 -1.000000000000e+006 -1.000000000000e+006 -1.000000000000e+006 -1.000000000000e+006 -1.000000000000e+006 -1.000000000000e+006 -1.000000000000e+006 -1.000000000000e+006 -1.000000000000e+006 
        </DataArray>
        <DataArray type="Float64" Name="NONWET_PRESSURE" format="ascii">