<?xml version="1.0"?>
<VTKFile type="UnstructuredGrid" version="0.1" byte_order="LittleEndian">
  <UnstructuredGrid>
    <Piece NumberOfPoints="909" NumberOfCells="800">
      <Points>
        <DataArray type="Float64" NumberOfComponents="3" format="ascii">
          0.000000000000e+000 0.000000000000e+000 0.000000000000e+000
          2.000000000000e+000 0.000000000000e+000 0.000000000000e+000
          2.000000000000e+000 2.500000000000e+000 0.000000000000e+000
          0.000000000000e+000 2.500000000000e+000 0.000000000000e+000
          2.000000000000e+000 5.000000000000e+000 0.000000000000e+000
          0.000000000000e+000 5.000000000000e+000 0.000000000000e+000
          2.000000000000e+000 7.500000000000e+000 0.000000000000e+000
          0.000000000000e+000 7.500000000000e+000 0.000000000000e+000
          2.000000000000e+000 1.000000000000e+001 0.000000000000e+000
          0.000000000000e+000 1.000000000000e+001 0.000000000000e+000
          2.000000000000e+000 1.250000000000e+001 0.000000000000e+000
          0.000000000000e+000 1.250000000000e+001 0.000000000000e+000
          2.000000000000e+000 1.500000000000e+001 0.000000000000e+000
          0.000000000000e+000 1.500000000000e+001 0.000000000000e+000
          2.000000000000e+000 1.750000000000e+001 0.000000000000e+000
          0.000000000000e+000 1.750000000000e+001 0.000000000000e+000
          2.000000000000e+000 2.000000000000e+001 0.000000000000e+000
          0.000000000000e+000 2.000000000000e+001 0.000000000000e+000
          4.000000000000e+000 0.000000000000e+000 0.000000000000e+000
          4.000000000000e+000 2.500000000000e+000 0.000000000000e+000
          4.000000000000e+000 5.000000000000e+000 0.000000000000e+000
          4.000000000000e+000 7.500000000000e+000 0.000000000000e+000
          4.000000000000e+000 1.000000000000e+001 0.000000000000e+000
          4.000000000000e+000 1.250000000000e+001 0.000000000000e+000
          4.000000000000e+000 1.500000000000e+001 0.000000000000e+000
          4.000000000000e+000 1.750000000000e+001 0.000000000000e+000
          4.000000000000e+000 2.000000000000e+001 0.000000000000e+000
          6.000000000000e+000 0.000000000000e+000 0.000000000000e+000
          6.000000000000e+000 2.500000000000e+000 0.000000000000e+000
          6.000000000000e+000 5.000000000000e+000 0.000000000000e+000
          6.000000000000e+000 7.500000000000e+000 0.000000000000e+000
          6.000000000000e+000 1.000000000000e+001 0.000000000000e+000
          6.000000000000e+000 1.250000000000e+001 0.000000000000e+000
          6.000000000000e+000 1.500000000000e+001 0.000000000000e+000
          6.000000000000e+000 1.750000000000e+001 0.000000000000e+000
          6.000000000000e+000 2.000000000000e+001 0.000000000000e+000
          8.000000000000e+000 0.000000000000e+000 0.000000000000e+000
          8.000000000000e+000 2.500000000000e+000 0.000000000000e+000
          8.000000000000e+000 5.000000000000e+000 0.000000000000e+000
          8.000000000000e+000 7.500000000000e+000 0.000000000000e+000
          8.000000000000e+000 1.000000000000e+001 0.000000000000e+000
          8.000000000000e+000 1.250000000000e+001 0.000000000000e+000
          8.000000000000e+000 1.500000000000e+001 0.000000000000e+000
          8.000000000000e+000 1.750000000000e+001 0.000000000000e+000
          8.000000000000e+000 2.000000000000e+001 0.000000000000e+000
          1.000000000000e+001 0.000000000000e+000 0.000000000000e+000
          1.000000000000e+001 2.500000000000e+000 0.000000000000e+000
          1.000000000000e+001 5.000000000000e+000 0.000000000000e+000
          1.000000000000e+001 7.500000000000e+000 0.000000000000e+000
          1.000000000000e+001 1.000000000000e+001 0.000000000000e+000
          1.000000000000e+001 1.250000000000e+001 0.000000000000e+000
          1.000000000000e+001 1.500000000000e+001 0.000000000000e+000
          1.000000000000e+001 1.750000000000e+001 0.000000000000e+000
          1.000000000000e+001 2.000000000000e+001 0.000000000000e+000
          1.200000000000e+001 0.000000000000e+000 0.000000000000e+000
          1.200000000000e+001 2.500000000000e+000 0.000000000000e+000
          1.200000000000e+001 5.000000000000e+000 0.000000000000e+000
          1.200000000000e+001 7.500000000000e+000 0.000000000000e+000
          1.200000000000e+001 1.000000000000e+001 0.000000000000e+000
          1.200000000000e+001 1.250000000000e+001 0.000000000000e+000
          1.200000000000e+001 1.500000000000e+001 0.000000000000e+000
          1.200000000000e+001 1.750000000000e+001 0.000000000000e+000
          1.200000000000e+001 2.000000000000e+001 0.000000000000e+000
          1.400000000000e+001 0.000000000000e+000 0.000000000000e+000
          1.400000000000e+001 2.500000000000e+000 0.000000000000e+000
          1.400000000000e+001 5.000000000000e+000 0.000000000000e+000
          1.400000000000e+001 7.500000000000e+000 0.000000000000e+000
          1.400000000000e+001 1.000000000000e+001 0.000000000000e+000
          1.400000000000e+001 1.250000000000e+001 0.000000000000e+000
          1.400000000000e+001 1.500000000000e+001 0.000000000000e+000
          1.400000000000e+001 1.750000000000e+001 0.000000000000e+000
          1.400000000000e+001 2.000000000000e+001 0.000000000000e+000
          1.600000000000e+001 0.000000000000e+000 0.000000000000e+000
          1.600000000000e+001 2.500000000000e+000 0.000000000000e+000
          1.600000000000e+001 5.000000000000e+000 0.000000000000e+000
          1.600000000000e+001 7.500000000000e+000 0.000000000000e+000
          1.600000000000e+001 1.000000000000e+001 0.000000000000e+000
          1.600000000000e+001 1.250000000000e+001 0.000000000000e+000
          1.600000000000e+001 1.500000000000e+001 0.000000000000e+000
          1.600000000000e+001 1.750000000000e+001 0.000000000000e+000
          1.600000000000e+001 2.000000000000e+001 0.000000000000e+000
          1.800000000000e+001 0.000000000000e+000 0.000000000000e+000
          1.800000000000e+001 2.500000000000e+000 0.000000000000e+000
          1.800000000000e+001 5.000000000000e+000 0.000000000000e+000
          1.800000000000e+001 7.500000000000e+000 0.000000000000e+000
          1.800000000000e+001 1.000000000000e+001 0.000000000000e+000
          1.800000000000e+001 1.250000000000e+001 0.000000000000e+000
          1.800000000000e+001 1.500000000000e+001 0.000000000000e+000
          1.800000000000e+001 1.750000000000e+001 0.000000000000e+000
          1.800000000000e+001 2.000000000000e+001 0.000000000000e+000
          2.000000000000e+001 0.000000000000e+000 0.000000000000e+000
          2.000000000000e+001 2.500000000000e+000 0.000000000000e+000
          2.000000000000e+001 5.000000000000e+000 0.000000000000e+000
          2.000000000000e+001 7.500000000000e+000 0.000000000000e+000
          2.000000000000e+001 1.000000000000e+001 0.000000000000e+000
          2.000000000000e+001 1.250000000000e+001 0.000000000000e+000
          2.000000000000e+001 1.500000000000e+001 0.000000000000e+000
          2.000000000000e+001 1.750000000000e+001 0.000000000000e+000
          2.000000000000e+001 2.000000000000e+001 0.000000000000e+000
          2.200000000000e+001 0.000000000000e+000 0.000000000000e+000
          2.200000000000e+001 2.500000000000e+000 0.000000000000e+000
          2.200000000000e+001 5.000000000000e+000 0.000000000000e+000
          2.200000000000e+001 7.500000000000e+000 0.000000000000e+000
          2.200000000000e+001 1.000000000000e+001 0.000000000000e+000
          2.200000000000e+001 1.250000000000e+001 0.000000000000e+000
          2.200000000000e+001 1.500000000000e+001 0.000000000000e+000
          2.200000000000e+001 1.750000000000e+001 0.000000000000e+000
          2.200000000000e+001 2.000000000000e+001 0.000000000000e+000
          2.400000000000e+001 0.000000000000e+000 0.000000000000e+000
          2.400000000000e+001 2.500000000000e+000 0.000000000000e+000
          2.400000000000e+001 5.000000000000e+000 0.000000000000e+000
          2.400000000000e+001 7.500000000000e+000 0.000000000000e+000
          2.400000000000e+001 1.000000000000e+001 0.000000000000e+000
          2.400000000000e+001 1.250000000000e+001 0.000000000000e+000
          2.400000000000e+001 1.500000000000e+001 0.000000000000e+000
          2.400000000000e+001 1.750000000000e+001 0.000000000000e+000
          2.400000000000e+001 2.000000000000e+001 0.000000000000e+000
          2.600000000000e+001 0.000000000000e+000 0.000000000000e+000
          2.600000000000e+001 2.500000000000e+000 0.000000000000e+000
          2.600000000000e+001 5.000000000000e+000 0.000000000000e+000
          2.600000000000e+001 7.500000000000e+000 0.000000000000e+000
          2.600000000000e+001 1.000000000000e+001 0.000000000000e+000
          2.600000000000e+001 1.250000000000e+001 0.000000000000e+000
          2.600000000000e+001 1.500000000000e+001 0.000000000000e+000
          2.600000000000e+001 1.750000000000e+001 0.000000000000e+000
          2.600000000000e+001 2.000000000000e+001 0.000000000000e+000
          2.800000000000e+001 0.000000000000e+000 0.000000000000e+000
          2.800000000000e+001 2.500000000000e+000 0.000000000000e+000
          2.800000000000e+001 5.000000000000e+000 0.000000000000e+000
          2.800000000000e+001 7.500000000000e+000 0.000000000000e+000
          2.800000000000e+001 1.000000000000e+001 0.000000000000e+000
          2.800000000000e+001 1.250000000000e+001 0.000000000000e+000
          2.800000000000e+001 1.500000000000e+001 0.000000000000e+000
          2.800000000000e+001 1.750000000000e+001 0.000000000000e+000
          2.800000000000e+001 2.000000000000e+001 0.000000000000e+000
          3.000000000000e+001 0.000000000000e+000 0.000000000000e+000
          3.000000000000e+001 2.500000000000e+000 0.000000000000e+000
          3.000000000000e+001 5.000000000000e+000 0.000000000000e+000
          3.000000000000e+001 7.500000000000e+000 0.000000000000e+000
[...]
      <PointData Scalars="CAPILLARY_PRESSURE">
        <DataArray type="Float64" Name="CAPILLARY_PRESSURE" format="ascii">
          3.876227209782e+005 3.858264179698e+005 3.858264179698e+005 3.876227209782e+005 3.858264179698e+005 3.876227209781e+005 3.858264179698e+005 3.876227209782e+005 3.858264179698e+005 3.876227209782e+005 3.858264179698e+005 3.876227209782e+005 3.858264179698e+005 3.876227209781e+005 3.858264179698e+005 3.876227209782e+005 3.858264179698e+005 3.876227209781e+005 3.840149881039e+005 3.840149881039e+005 3.840149881039e+005 3.840149881039e+005 3.840149881039e+005 3.840149881039e+005 3.840149881039e+005 3.840149881039e+005 3.840149881039e+005 3.821878901139e+005 3.821878901139e+005 3.821878901139e+005 3.821878901139e+005 3.821878901139e+005 3.821878901139e+005 3.821878901139e+005 3.821878901139e+005 3.821878901139e+005 3.803447398037e+005 3.803447398038e+005 3.803447398037e+005 3.803447398038e+005 3.803447398037e+005 3.803447398037e+005 3.803447398037e+005 3.803447398037e+005 3.803447398037e+005 3.784852513893e+005 3.784852513893e+005 3.784852513893e+005 3.784852513893e+005 3.784852513893e+005 3.784852513893e+005 3.784852513893e+005 3.784852513893e+005 3.784852513893e+005 3.766090407494e+005 3.766090407494e+005 3.766090407494e+005 3.766090407494e+005 3.766090407494e+005 3.766090407494e+005 3.766090407494e+005 3.766090407494e+005 3.766090407494e+005 3.747157234777e+005 3.747157234777e+005 3.747157234777e+005 3.747157234777e+005 3.747157234777e+005 3.747157234777e+005 3.747157234777e+005 3.747157234777e+005 3.747157234777e+005 3.728048999330e+005 3.728048999330e+005 3.728048999330e+005 3.728048999330e+005 3.728048999330e+005 3.728048999330e+005 3.728048999330e+005 3.728048999330e+005 3.728048999330e+005 3.708761598080e+005 3.708761598080e+005 3.708761598080e+005 3.708761598080e+005 3.708761598080e+005 3.708761598080e+005 3.708761598080e+005 3.708761598080e+005 3.708761598080e+005 3.689290764708e+005 3.689290764708e+005 3.689290764708e+005 3.689290764708e+005 3.689290764708e+005 3.689290764708e+005 3.689290764708e+005 3.689290764708e+005 3.689290764708e+005 3.669632065879e+005 3.669632065879e+005 3.669632065879e+005 3.669632065879e+005 3.669632065879e+005 3.669632065879e+005 3.669632065879e+005 3.669632065879e+005 3.669632065878e+005 3.649780891379e+005 3.649780891379e+005 3.649780891379e+005 3.649780891379e+005 3.649780891379e+005 3.649780891379e+005 3.649780891379e+005 3.649780891379e+005 3.649780891379e+005 3.629732448051e+005 3.629732448051e+005 3.629732448051e+005 3.629732448051e+005 3.629732448051e+005 3.629732448051e+005 3.629732448051e+005 3.629732448051e+005 3.629732448051e+005 3.609481750162e+005 3.609481750162e+005 3.609481750162e+005 3.609481750162e+005 3.609481750162e+005 3.609481750162e+005 3.609481750162e+005 3.609481750162e+005 3.609481750162e+005 3.589023608695e+005 3.589023608695e+005 3.589023608695e+005 3.589023608695e+005 3.589023608695e+005 3.589023608695e+005 3.589023608695e+005 3.589023608695e+005 3.589023608695e+005 3.568352619447e+005 3.568352619447e+005 3.568352619447e+005 3.568352619447e+005 3.568352619447e+005 3.568352619447e+005 3.568352619447e+005 3.568352619447e+005 3.568352619447e+005 3.547463150422e+005 3.547463150422e+005 3.547463150422e+005 3.547463150422e+005 3.547463150422e+005 3.547463150422e+005 3.547463150422e+005 3.547463150422e+005 3.547463150422e+005 3.526349328391e+005 3.526349328390e+005 3.526349328391e+005 3.526349328390e+005 3.526349328390e+005 3.526349328390e+005 3.526349328391e+005 3.526349328390e+005 3.526349328390e+005 3.505005024521e+005 3.505005024521e+005 3.505005024521e+005 3.505005024521e+005 3.505005024521e+005 3.505005024521e+005 3.505005024521e+005 3.505005024521e+005 3.505005024521e+005 3.483423838909e+005 3.483423838909e+005 3.483423838909e+005 3.483423838909e+005 3.483423838909e+005 3.483423838909e+005 3.483423838909e+005 3.483423838909e+005 3.483423838909e+005 3.461599083888e+005 3.461599083888e+005 3.461599083888e+005 3.461599083889e+005 3.461599083889e+005 3.461599083888e+005 3.461599083888e+005 3.461599083889e+005 3.461599083888e+005 3.439523765993e+005 3.439523765993e+005 3.439523765993e+005 3.439523765993e+005 3.439523765993e+005 3.439523765993e+005 3.439523765993e+005 3.439523765993e+005 3.439523765993e+005 3.417190566449e+005 3.417190566449e+005 3.417190566449e+005 3.417190566449e+005 3.417190566449e+005 3.417190566449e+005 3.417190566449e+005 3.417190566449e+005 3.417190566449e+005 3.394591820049e+005 3.394591820049e+005 3.394591820049e+005 3.394591820049e+005 3.394591820049e+005 3.394591820049e+005 3.394591820049e+005 3.394591820049e+005 3.394591820049e+005 3.371719492252e+005 3.371719492252e+005 3.371719492252e+005 3.371719492251e+005 3.371719492252e+005 3.371719492251e+005 3.371719492251e+005 3.371719492252e+005 3.371719492252e+005 3.348565154330e+005 3.348565154330e+005 3.348565154330e+005 3.348565154330e+005 3.348565154330e+005 3.348565154330e+005 3.348565154330e+005 3.348565154330e+005 3.348565154330e+005 3.325119956346e+005 3.325119956346e+005 3.325119956346e+005 3.325119956346e+005 3.325119956346e+005 3.325119956346e+005 3.325119956346e+005 3.325119956346e+005 3.325119956346e+005 3.301374597731e+005 3.301374597731e+005 3.301374597731e+005 3.301374597731e+005 3.301374597731e+005 3.301374597731e+005 3.301374597731e+005 3.301374597731e+005 3.301374597731e+005 3.277319295202e+005 3.277319295202e+005 3.277319295202e+005 3.277319295202e+005 3.277319295202e+005 3.277319295202e+005 3.277319295202e+005 3.277319295202e+005 3.277319295202e+005 3.252943747719e+005 3.252943747719e+005 3.252943747719e+005 3.252943747719e+005 3.252943747719e+005 3.252943747719e+005 3.252943747719e+005 3.252943747719e+005 3.252943747719e+005 3.228237098135e+005 3.228237098135e+005 3.228237098135e+005 3.228237098135e+005 3.228237098135e+005 3.228237098135e+005 3.228237098135e+005 3.228237098135e+005 3.228237098135e+005 3.203187891172e+005 3.203187891172e+005 3.203187891173e+005 3.203187891172e+005 3.203187891172e+005 3.203187891172e+005 3.203187891172e+005 3.203187891173e+005 3.203187891172e+005 3.177784027270e+005 3.177784027270e+005 3.177784027270e+005 3.177784027270e+005 3.177784027270e+005 3.177784027270e+005 3.177784027270e+005 3.177784027270e+005 3.177784027270e+005 3.152012711810e+005 3.152012711810e+005 3.152012711811e+005 3.152012711811e+005 3.152012711810e+005 3.152012711810e+005 3.152012711810e+005 3.152012711811e+005 3.152012711810e+005 3.125860399150e+005 3.125860399150e+005 3.125860399150e+005 3.125860399150e+005 3.125860399150e+005 3.125860399150e+005 3.125860399150e+005 3.125860399150e+005 3.125860399150e+005 3.099312730795e+005 3.099312730795e+005 3.099312730795e+005 3.099312730795e+005 3.099312730795e+005 3.099312730795e+005 3.099312730795e+005 3.099312730795e+005 3.099312730795e+005 3.072354466962e+005 3.072354466962e+005 3.072354466962e+005 3.072354466962e+005 3.072354466962e+005 3.072354466962e+005 3.072354466962e+005 3.072354466962e+005 3.072354466962e+005 3.044969410644e+005 3.044969410644e+005 3.044969410644e+005 3.044969410644e+005 3.044969410644e+005 3.044969410644e+005 3.044969410644e+005 3.044969410644e+005 3.044969410644e+005 3.017140323167e+005 3.017140323167e+005 3.017140323167e+005 3.017140323167e+005 3.017140323167e+005 3.017140323167e+005 3.017140323167e+005 3.017140323167e+005 3.017140323167e+005 2.988848830048e+005 2.988848830047e+005 2.988848830048e+005 2.988848830047e+005 2.988848830047e+005 2.988848830047e+005 2.988848830047e+005 2.988848830047e+005 2.988848830048e+005 2.960075315772e+005 2.960075315772e+005 2.960075315772e+005 2.960075315772e+005 2.960075315772e+005 2.960075315772e+005 2.960075315772e+005 2.960075315772e+005 2.960075315772e+005 2.930798805872e+005 2.930798805872e+005 2.930798805872e+005 2.930798805872e+005 2.930798805872e+005 2.930798805872e+005 2.930798805872e+005 2.930798805872e+005 2.930798805872e+005 2.900996834389e+005 2.900996834389e+005 2.900996834390e+005 2.900996834389e+005 2.900996834389e+005 2.900996834389e+005 2.900996834389e+005 2.900996834389e+005 2.900996834390e+005 2.870645294479e+005 2.870645294479e+005 2.870645294479e+005 2.870645294479e+005 2.870645294479e+005 2.870645294479e+005 2.870645294479e+005 2.870645294479e+005 2.870645294479e+005 2.839718269470e+005 2.839718269470e+005 2.839718269470e+005 2.839718269470e+005 2.839718269470e+005 2.839718269470e+005 2.839718269470e+005 2.839718269470e+005 2.839718269470e+005 2.808187841208e+005 2.808187841208e+005 2.808187841208e+005 2.808187841208e+005 2.808187841208e+005 2.808187841208e+005 2.808187841208e+005 2.808187841208e+005 2.808187841208e+005 2.776023871858e+005 2.776023871858e+005 2.776023871858e+005 2.776023871858e+005 2.776023871858e+005 2.776023871858e+005 2.776023871858e+005 2.776023871858e+005 2.776023871858e+005 2.743193754575e+005 2.743193754575e+005 2.743193754575e+005 2.743193754575e+005 2.743193754575e+005 2.743193754575e+005 2.743193754575e+005 2.743193754575e+005 2.743193754575e+005 2.709662127507e+005 2.709662127507e+005 2.709662127507e+005 2.709662127507e+005 2.709662127507e+005 2.709662127507e+005 2.709662127507e+005 2.709662127507e+005 2.709662127507e+005 2.675390544365e+005 2.675390544365e+005 2.675390544365e+005 2.675390544365e+005 2.675390544365e+005 2.675390544365e+005 2.675390544365e+005 2.675390544365e+005 2.675390544365e+005 2.640337093308e+005 2.640337093308e+005 2.640337093309e+005 2.640337093308e+005 2.640337093308e+005 2.640337093308e+005 2.640337093308e+005 2.640337093308e+005 2.640337093308e+005 2.604455953979e+005 2.604455953979e+005 2.604455953979e+005 2.604455953979e+005 2.604455953979e+005 2.604455953979e+005 2.604455953979e+005 2.604455953979e+005 2.604455953979e+005 2.567696880092e+005 2.567696880092e+005 2.567696880092e+005 2.567696880092e+005 2.567696880092e+005 2.567696880092e+005 2.567696880092e+005 2.567696880092e+005 2.567696880092e+005 2.530004591849e+005 2.530004591849e+005 2.530004591849e+005 2.530004591849e+005 2.530004591849e+005 2.530004591849e+005 2.530004591849e+005 2.530004591849e+005 2.530004591849e+005 2.491318058419e+005 2.491318058419e+005 2.491318058419e+005 2.491318058419e+005 2.491318058419e+005 2.491318058419e+005 2.491318058419e+005 2.491318058419e+005 2.491318058419e+005 2.451569645399e+005 2.451569645399e+005 2.451569645399e+005 2.451569645399e+005 2.451569645399e+005 2.451569645399e+005 2.451569645399e+005 2.451569645399e+005 2.451569645399e+005 2.410684095215e+005 2.410684095215e+005 2.410684095215e+005 2.410684095215e+005 2.410684095215e+005 2.410684095215e+005 2.410684095215e+005 2.410684095215e+005 2.410684095215e+005 2.368577299062e+005 2.368577299061e+005 2.368577299061e+005 2.368577299061e+005 2.368577299061e+005 2.368577299061e+005 2.368577299061e+005 2.368577299061e+005 2.368577299061e+005 2.325154806425e+005 2.325154806425e+005 2.325154806426e+005 2.325154806425e+005 2.325154806426e+005 2.325154806425e+005 2.325154806426e+005 2.325154806425e+005 2.325154806425e+005 2.280310001147e+005 2.280310001147e+005 2.280310001147e+005 2.280310001147e+005 2.280310001147e+005 2.280310001147e+005 2.280310001147e+005 2.280310001147e+005 2.280310001147e+005 2.233921849343e+005 2.233921849343e+005 2.233921849343e+005 2.233921849343e+005 2.233921849343e+005 2.233921849343e+005 2.233921849343e+005 2.233921849343e+005 2.233921849343e+005 2.185852091399e+005 2.185852091399e+005 2.185852091399e+005 2.185852091399e+005 2.185852091399e+005 2.185852091399e+005 2.185852091399e+005 2.185852091399e+005 2.185852091399e+005 2.135941702250e+005 2.135941702250e+005 2.135941702250e+005 2.135941702250e+005 2.135941702250e+005 2.135941702250e+005 2.135941702250e+005 2.135941702250e+005 2.135941702250e+005 2.084006372906e+005 2.084006372906e+005 2.084006372906e+005 2.084006372906e+005 2.084006372906e+005 2.084006372906e+005 2.084006372906e+005 2.084006372906e+005 2.084006372906e+005 2.029830661478e+005 2.029830661478e+005 2.029830661478e+005 2.029830661478e+005 2.029830661478e+005 2.029830661478e+005 2.029830661478e+005 2.029830661478e+005 2.029830661478e+005 1.973160317328e+005 1.973160317328e+005 1.973160317328e+005 1.973160317328e+005 1.973160317328e+005 1.973160317328e+005 1.973160317328e+005 1.973160317328e+005 1.973160317328e+005 1.913692080398e+005 1.913692080398e+005 1.913692080398e+005 1.913692080398e+005 1.913692080398e+005 1.913692080399e+005 1.913692080398e+005 1.913692080399e+005 1.913692080398e+005 1.851059887870e+005 1.851059887870e+005 1.851059887870e+005 1.851059887870e+005 1.851059887870e+005 1.851059887869e+005 1.851059887870e+005 1.851059887869e+005 1.851059887870e+005 1.784815619115e+005 1.784815619115e+005 1.784815619115e+005 1.784815619115e+005 1.784815619115e+005 1.784815619115e+005 1.784815619115e+005 1.784815619115e+005 1.784815619115e+005 1.714401255046e+005 1.714401255046e+005 1.714401255046e+005 1.714401255046e+005 1.714401255047e+005 1.714401255046e+005 1.714401255046e+005 1.714401255047e+005 1.714401255047e+005 1.639108310073e+005 1.639108310073e+005 1.639108310074e+005 1.639108310074e+005 1.639108310073e+005 1.639108310073e+005 1.639108310073e+005 1.639108310074e+005 1.639108310074e+005 1.558018562971e+005 1.558018562971e+005 1.558018562971e+005 1.558018562971e+005 1.558018562971e+005 1.558018562971e+005 1.558018562969e+005 1.558018562969e+005 1.558018562969e+005 1.469910495399e+005 1.469910495397e+005 1.469910495393e+005 1.469910495390e+005 1.469910495394e+005 1.469910495397e+005 1.469910495393e+005 1.469910495390e+005 1.469910495388e+005 1.373096751454e+005 1.373096751453e+005 1.373096751450e+005 1.373096751444e+005 1.373096751447e+005 1.373096751459e+005 1.373096751454e+005 1.373096751453e+005 1.373096751448e+005 1.265143934716e+005 1.265143934718e+005 1.265143934735e+005 1.265143934731e+005 1.265143934722e+005 1.265143934729e+005 1.265143934732e+005 1.265143934746e+005 1.265143934736e+005 1.142368846259e+005 1.142368846248e+005 1.142368846293e+005 1.142368846315e+005 1.142368846269e+005 1.142368846246e+005 1.142368846258e+005 1.142368846297e+005 1.142368846272e+005 9.987525697290e+004 9.987525696539e+004 9.987525696645e+004 9.987525697374e+004 9.987525696853e+004 9.987525696214e+004 9.987525696487e+004 9.987525696745e+004 9.987525696166e+004 8.234034184603e+004 8.234034182951e+004 8.234034181574e+004 8.234034182690e+004 8.234034183186e+004 8.234034182893e+004 8.234034183421e+004 8.234034182702e+004 8.234034181985e+004 5.935956999612e+004 5.935956998885e+004 5.935956996648e+004 5.935956996782e+004 5.935956998898e+004 5.935956999467e+004 5.935957000220e+004 5.935956998323e+004 5.935956999035e+004 2.534934045206e+004 2.534934052051e+004 2.534934053068e+004 2.534934049580e+004 2.534934050513e+004 2.534934050501e+004 2.534934050771e+004 2.534934048458e+004 2.534934054977e+004 -2.413758572326e+004 -2.413758468984e+004 -2.413758425211e+004 -2.413758481273e+004 -2.413758485513e+004 -2.413758500545e+004 -2.413758502339e+004 -2.413758518715e+004 -2.413758429067e+004 -7.559899014775e+004 -7.559898884965e+004 -7.559898757171e+004 -7.559898873054e+004 -7.559898934572e+004 -7.559898928457e+004 -7.559898950759e+004 -7.559898834254e+004 -7.559898798989e+004 -1.270413465010e+005 -1.270413447164e+005 -1.270413436666e+005 -1.270413440389e+005 -1.270413435987e+005 -1.270413421401e+005 -1.270413439360e+005 -1.270413433716e+005 -1.270413429286e+005 -1.784758828720e+005 -1.784758800083e+005 -1.784758793548e+005 -1.784758775834e+005 -1.784758777222e+005 -1.784758774900e+005 -1.784758777812e+005 -1.784758764742e+005 -1.784758757349e+005 -2.298991618089e+005 -2.298991608989e+005 -2.298991598910e+005 -2.298991585609e+005 -2.298991579898e+005 -2.298991571300e+005 -2.298991572572e+005 -2.298991558732e+005 -2.298991564048e+005 -2.813122460217e+005 -2.813122458756e+005 -2.813122437232e+005 -2.813122450440e+005 -2.813122427678e+005 -2.813122423552e+005 -2.813122420915e+005 -2.813122409572e+005 -2.813122398664e+005 -3.327148148974e+005 -3.327148139098e+005 -3.327148148580e+005 -3.327148125975e+005 -3.327148122895e+005 -3.327148111527e+005 -3.327148109369e+005 -3.327148107517e+005 -3.327148096784e+005 -3.841069679175e+005 -3.841069694982e+005 -3.841069688687e+005 -3.841069686995e+005 -3.841069672823e+005 -3.841069668621e+005 -3.841069660160e+005 -3.841069646264e+005 -3.841069639545e+005 -4.354886836892e+005 -4.354886855708e+005 -4.354886863065e+005 -4.354886848508e+005 -4.354886832467e+005 -4.354886833578e+005 -4.354886817909e+005 -4.354886804493e+005 -4.354886802962e+005 -4.868599713444e+005 -4.868599736813e+005 -4.868599735390e+005 -4.868599735122e+005 -4.868599725457e+005 -4.868599707755e+005 -4.868599695916e+005 -4.868599693011e+005 -4.868599686274e+005 -5.382208363332e+005 -5.382208343924e+005 -5.382208352570e+005 -5.382208351961e+005 -5.382208348863e+005 -5.382208323298e+005 -5.382208313109e+005 -5.382208321127e+005 -5.382208317831e+005 -5.895712758222e+005 -5.895712752557e+005 -5.895712750202e+005 -5.895712749279e+005 -5.895712739617e+005 -5.895712717288e+005 -5.895712723769e+005 -5.895712717471e+005 -5.895712720784e+005 -6.409112971318e+005 -6.409112963544e+005 -6.409112963075e+005 -6.409112948814e+005 -6.409112947313e+005 -6.409112936898e+005 -6.409112934131e+005 -6.409112928232e+005 -6.409112935334e+005 -6.922409019017e+005 -6.922409010017e+005 -6.922409013719e+005 -6.922409010066e+005 -6.922408998739e+005 -6.922408997566e+005 -6.922408991374e+005 -6.922408990685e+005 -6.922408978746e+005 -7.435600930082e+005 -7.435600936781e+005 -7.435600944541e+005 -7.435600939946e+005 -7.435600932596e+005 -7.435600935618e+005 -7.435600929134e+005 -7.435600929477e+005 -7.435600926750e+005 -7.948688772214e+005 -7.948688779922e+005 -7.948688785352e+005 -7.948688779523e+005 -7.948688779080e+005 -7.948688781307e+005 -7.948688773155e+005 -7.948688778477e+005 -7.948688779177e+005 -8.461672572356e+005 -8.461672573490e+005 -8.461672576929e+005 -8.461672578189e+005 -8.461672566774e+005 -8.461672565173e+005 -8.461672568222e+005 -8.461672570877e+005 -8.461672569307e+005 -8.974552339471e+005 -8.974552347693e+005 -8.974552354007e+005 -8.974552353285e+005 -8.974552350248e+005 -8.974552343470e+005 -8.974552343474e+005 -8.974552345178e+005 -8.974552346302e+005 -9.487328143078e+005 -9.487328147401e+005 -9.487328149923e+005 -9.487328148416e+005 -9.487328149346e+005 -9.487328144767e+005 -9.487328144766e+005 -9.487328146406e+005 -9.487328144830e+005 -1.000000000000e+006 -1.000000000000e+006 -1.000000000000e+006 -1.000000000000e+006 -1.000000000000e+006 -1.000000000000e+006 -1.000000000000e+006 -1.000000000000e+006 -1.000000000000e+006 
        </DataArray>
        <DataArray type="Float64" Name="NONWET_PRESSURE" format="ascii">