<?xml version="1.0"?>
<VTKFile type="UnstructuredGrid" version="0.1" byte_order="LittleEndian">
  <UnstructuredGrid>
    <Piece NumberOfPoints="909" NumberOfCells="800">
      <Points>
        <DataArray type="Float64" NumberOfComponents="3" format="ascii">
          0.000000000000e+000 0.000000000000e+000 0.000000000000e+000
          2.000000000000e+000 0.000000000000e+000 0.000000000000e+000
          2.000000000000e+000 2.500000000000e+000 0.000000000000e+000
          0.000000000000e+000 2.500000000000e+000 0.000000000000e+000
          2.000000000000e+000 5.000000000000e+000 0.000000000000e+000
          0.000000000000e+000 5.000000000000e+000 0.000000000000e+000
          2.000000000000e+000 7.500000000000e+000 0.000000000000e+000
          0.000000000000e+000 7.500000000000e+000 0.000000000000e+000
          2.000000000000e+000 1.000000000000e+001 0.000000000000e+000
          0.000000000000e+000 1.000000000000e+001 0.000000000000e+000
          2.000000000000e+000 1.250000000000e+001 0.000000000000e+000
          0.000000000000e+000 1.250000000000e+001 0.000000000000e+000
          2.000000000000e+000 1.500000000000e+001 0.000000000000e+000
          0.000000000000e+000 1.500000000000e+001 0.000000000000e+000
          2.000000000000e+000 1.750000000000e+001 0.000000000000e+000
          0.000000000000e+000 1.750000000000e+001 0.000000000000e+000
          2.000000000000e+000 2.000000000000e+001 0.000000000000e+000
          0.000000000000e+000 2.000000000000e+001 0.000000000000e+000
          4.000000000000e+000 0.000000000000e+000 0.000000000000e+000
          4.000000000000e+000 2.500000000000e+000 0.000000000000e+000
          4.000000000000e+000 5.000000000000e+000 0.000000000000e+000
          4.000000000000e+000 7.500000000000e+000 0.000000000000e+000
          4.000000000000e+000 1.000000000000e+001 0.000000000000e+000
          4.000000000000e+000 1.250000000000e+001 0.000000000000e+000
          4.000000000000e+000 1.500000000000e+001 0.000000000000e+000
          4.000000000000e+000 1.750000000000e+001 0.000000000000e+000
          4.000000000000e+000 2.000000000000e+001 0.000000000000e+000
          6.000000000000e+000 0.000000000000e+000 0.000000000000e+000
          6.000000000000e+000 2.500000000000e+000 0.000000000000e+000
          6.000000000000e+000 5.000000000000e+000 0.000000000000e+000
          6.000000000000e+000 7.500000000000e+000 0.000000000000e+000
          6.000000000000e+000 1.000000000000e+001 0.000000000000e+000
          6.000000000000e+000 1.250000000000e+001 0.000000000000e+000
          6.000000000000e+000 1.500000000000e+001 0.000000000000e+000
          6.000000000000e+000 1.750000000000e+001 0.000000000000e+000
          6.000000000000e+000 2.000000000000e+001 0.000000000000e+000
          8.000000000000e+000 0.000000000000e+000 0.000000000000e+000
          8.000000000000e+000 2.500000000000e+000 0.000000000000e+000
          8.000000000000e+000 5.000000000000e+000 0.000000000000e+000
          8.000000000000e+000 7.500000000000e+000 0.000000000000e+000
          8.000000000000e+000 1.000000000000e+001 0.000000000000e+000
          8.000000000000e+000 1.250000000000e+001 0.000000000000e+000
          8.000000000000e+000 1.500000000000e+001 0.000000000000e+000
          8.000000000000e+000 1.750000000000e+001 0.000000000000e+000
          8.000000000000e+000 2.000000000000e+001 0.000000000000e+000
          1.000000000000e+001 0.000000000000e+000 0.000000000000e+000
          1.000000000000e+001 2.500000000000e+000 0.000000000000e+000
          1.000000000000e+001 5.000000000000e+000 0.000000000000e+000
          1.000000000000e+001 7.500000000000e+000 0.000000000000e+000
          1.000000000000e+001 1.000000000000e+001 0.000000000000e+000
          1.000000000000e+001 1.250000000000e+001 0.000000000000e+000
          1.000000000000e+001 1.500000000000e+001 0.000000000000e+000
          1.000000000000e+001 1.750000000000e+001 0.000000000000e+000
          1.000000000000e+001 2.000000000000e+001 0.000000000000e+000
          1.200000000000e+001 0.000000000000e+000 0.000000000000e+000
          1.200000000000e+001 2.500000000000e+000 0.000000000000e+000
          1.200000000000e+001 5.000000000000e+000 0.000000000000e+000
          1.200000000000e+001 7.500000000000e+000 0.000000000000e+000
          1.200000000000e+001 1.000000000000e+001 0.000000000000e+000
          1.200000000000e+001 1.250000000000e+001 0.000000000000e+000
          1.200000000000e+001 1.500000000000e+001 0.000000000000e+000
          1.200000000000e+001 1.750000000000e+001 0.000000000000e+000
          1.200000000000e+001 2.000000000000e+001 0.000000000000e+000
          1.400000000000e+001 0.000000000000e+000 0.000000000000e+000
          1.400000000000e+001 2.500000000000e+000 0.000000000000e+000
          1.400000000000e+001 5.000000000000e+000 0.000000000000e+000
          1.400000000000e+001 7.500000000000e+000 0.000000000000e+000
          1.400000000000e+001 1.000000000000e+001 0.000000000000e+000
          1.400000000000e+001 1.250000000000e+001 0.000000000000e+000
          1.400000000000e+001 1.500000000000e+001 0.000000000000e+000
          1.400000000000e+001 1.750000000000e+001 0.000000000000e+000
          1.400000000000e+001 2.000000000000e+001 0.000000000000e+000
          1.600000000000e+001 0.000000000000e+000 0.000000000000e+000
          1.600000000000e+001 2.500000000000e+000 0.000000000000e+000
          1.600000000000e+001 5.000000000000e+000 0.000000000000e+000
          1.600000000000e+001 7.500000000000e+000 0.000000000000e+000
          1.600000000000e+001 1.000000000000e+001 0.000000000000e+000
          1.600000000000e+001 1.250000000000e+001 0.000000000000e+000
          1.600000000000e+001 1.500000000000e+001 0.000000000000e+000
          1.600000000000e+001 1.750000000000e+001 0.000000000000e+000
          1.600000000000e+001 2.000000000000e+001 0.000000000000e+000
          1.800000000000e+001 0.000000000000e+000 0.000000000000e+000
          1.800000000000e+001 2.500000000000e+000 0.000000000000e+000
          1.800000000000e+001 5.000000000000e+000 0.000000000000e+000
          1.800000000000e+001 7.500000000000e+000 0.000000000000e+000
          1.800000000000e+001 1.000000000000e+001 0.000000000000e+000
          1.800000000000e+001 1.250000000000e+001 0.000000000000e+000
          1.800000000000e+001 1.500000000000e+001 0.000000000000e+000
          1.800000000000e+001 1.750000000000e+001 0.000000000000e+000
          1.800000000000e+001 2.000000000000e+001 0.000000000000e+000
          2.000000000000e+001 0.000000000000e+000 0.000000000000e+000
          2.000000000000e+001 2.500000000000e+000 0.000000000000e+000
          2.000000000000e+001 5.000000000000e+000 0.000000000000e+000
          2.000000000000e+001 7.500000000000e+000 0.000000000000e+000
          2.000000000000e+001 1.000000000000e+001 0.000000000000e+000
          2.000000000000e+001 1.250000000000e+001 0.000000000000e+000
          2.000000000000e+001 1.500000000000e+001 0.000000000000e+000
          2.000000000000e+001 1.750000000000e+001 0.000000000000e+000
          2.000000000000e+001 2.000000000000e+001 0.000000000000e+000
          2.200000000000e+001 0.000000000000e+000 0.000000000000e+000
          2.200000000000e+001 2.500000000000e+000 0.000000000000e+000
          2.200000000000e+001 5.000000000000e+000 0.000000000000e+000
          2.200000000000e+001 7.500000000000e+000 0.000000000000e+000
          2.200000000000e+001 1.000000000000e+001 0.000000000000e+000
          2.200000000000e+001 1.250000000000e+001 0.000000000000e+000
          2.200000000000e+001 1.500000000000e+001 0.000000000000e+000
          2.200000000000e+001 1.750000000000e+001 0.000000000000e+000
          2.200000000000e+001 2.000000000000e+001 0.000000000000e+000
          2.400000000000e+001 0.000000000000e+000 0.000000000000e+000
          2.400000000000e+001 2.500000000000e+000 0.000000000000e+000
          2.400000000000e+001 5.000000000000e+000 0.000000000000e+000
          2.400000000000e+001 7.500000000000e+000 0.000000000000e+000
          2.400000000000e+001 1.000000000000e+001 0.000000000000e+000
          2.400000000000e+001 1.250000000000e+001 0.000000000000e+000
          2.400000000000e+001 1.500000000000e+001 0.000000000000e+000
          2.400000000000e+001 1.750000000000e+001 0.000000000000e+000
          2.400000000000e+001 2.000000000000e+001 0.000000000000e+000
          2.600000000000e+001 0.000000000000e+000 0.000000000000e+000
          2.600000000000e+001 2.500000000000e+000 0.000000000000e+000
          2.600000000000e+001 5.000000000000e+000 0.000000000000e+000
          2.600000000000e+001 7.500000000000e+000 0.000000000000e+000
          2.600000000000e+001 1.000000000000e+001 0.000000000000e+000
          2.600000000000e+001 1.250000000000e+001 0.000000000000e+000
          2.600000000000e+001 1.500000000000e+001 0.000000000000e+000
          2.600000000000e+001 1.750000000000e+001 0.000000000000e+000
          2.600000000000e+001 2.000000000000e+001 0.000000000000e+000
          2.800000000000e+001 0.000000000000e+000 0.000000000000e+000
          2.800000000000e+001 2.500000000000e+000 0.000000000000e+000
          2.800000000000e+001 5.000000000000e+000 0.000000000000e+000
          2.800000000000e+001 7.500000000000e+000 0.000000000000e+000
          2.800000000000e+001 1.000000000000e+001 0.000000000000e+000
          2.800000000000e+001 1.250000000000e+001 0.000000000000e+000
          2.800000000000e+001 1.500000000000e+001 0.000000000000e+000
          2.800000000000e+001 1.750000000000e+001 0.000000000000e+000
          2.800000000000e+001 2.000000000000e+001 0.000000000000e+000
          3.000000000000e+001 0.000000000000e+000 0.000000000000e+000
          3.000000000000e+001 2.500000000000e+000 0.000000000000e+000
          3.000000000000e+001 5.000000000000e+000 0.000000000000e+000
          3.000000000000e+001 7.500000000000e+000 0.000000000000e+000
[...]
      <PointData Scalars="CAPILLARY_PRESSURE">
        <DataArray type="Float64" Name="CAPILLARY_PRESSURE" format="ascii">
          2.510368281363e+005 2.475293900959e+005 2.475293900959e+005 2.510368281363e+005 2.475293900959e+005 2.510368281363e+005 2.475293900959e+005 2.510368281363e+005 2.475293900959e+005 2.510368281363e+005 2.475293900959e+005 2.510368281363e+005 2.475293900959e+005 2.510368281363e+005 2.475293900959e+005 2.510368281363e+005 2.475293900959e+005 2.510368281363e+005 2.440102794894e+005 2.440102794894e+005 2.440102794894e+005 2.440102794894e+005 2.440102794894e+005 2.440102794894e+005 2.440102794894e+005 2.440102794894e+005 2.440102794894e+005 2.404770739363e+005 2.404770739363e+005 2.404770739363e+005 2.404770739363e+005 2.404770739363e+005 2.404770739363e+005 2.404770739363e+005 2.404770739363e+005 2.404770739363e+005 2.369275425006e+005 2.369275425006e+005 2.369275425006e+005 2.369275425006e+005 2.369275425006e+005 2.369275425006e+005 2.369275425006e+005 2.369275425006e+005 2.369275425006e+005 2.333591421343e+005 2.333591421343e+005 2.333591421343e+005 2.333591421343e+005 2.333591421343e+005 2.333591421343e+005 2.333591421343e+005 2.333591421343e+005 2.333591421343e+005 2.297691437950e+005 2.297691437950e+005 2.297691437950e+005 2.297691437950e+005 2.297691437950e+005 2.297691437950e+005 2.297691437950e+005 2.297691437950e+005 2.297691437950e+005 2.261545787230e+005 2.261545787230e+005 2.261545787230e+005 2.261545787230e+005 2.261545787230e+005 2.261545787230e+005 2.261545787230e+005 2.261545787230e+005 2.261545787230e+005 2.225122158602e+005 2.225122158602e+005 2.225122158602e+005 2.225122158602e+005 2.225122158602e+005 2.225122158602e+005 2.225122158602e+005 2.225122158602e+005 2.225122158602e+005 2.188385307844e+005 2.188385307844e+005 2.188385307844e+005 2.188385307844e+005 2.188385307844e+005 2.188385307844e+005 2.188385307844e+005 2.188385307844e+005 2.188385307844e+005 2.151296693807e+005 2.151296693807e+005 2.151296693807e+005 2.151296693807e+005 2.151296693807e+005 2.151296693807e+005 2.151296693807e+005 2.151296693807e+005 2.151296693807e+005 2.113814050714e+005 2.113814050714e+005 2.113814050714e+005 2.113814050714e+005 2.113814050714e+005 2.113814050714e+005 2.113814050714e+005 2.113814050714e+005 2.113814050714e+005 2.075890886475e+005 2.075890886475e+005 2.075890886475e+005 2.075890886475e+005 2.075890886475e+005 2.075890886475e+005 2.075890886475e+005 2.075890886475e+005 2.075890886475e+005 2.037475889043e+005 2.037475889043e+005 2.037475889043e+005 2.037475889043e+005 2.037475889043e+005 2.037475889043e+005 2.037475889043e+005 2.037475889043e+005 2.037475889043e+005 1.998512220219e+005 1.998512220219e+005 1.998512220219e+005 1.998512220219e+005 1.998512220219e+005 1.998512220219e+005 1.998512220219e+005 1.998512220219e+005 1.998512220219e+005 1.958936670221e+005 1.958936670221e+005 1.958936670221e+005 1.958936670221e+005 1.958936670221e+005 1.958936670221e+005 1.958936670221e+005 1.958936670221e+005 1.958936670221e+005 1.918678639051e+005 1.918678639051e+005 1.918678639051e+005 1.918678639051e+005 1.918678639051e+005 1.918678639051e+005 1.918678639051e+005 1.918678639051e+005 1.918678639051e+005 1.877658900517e+005 1.877658900517e+005 1.877658900517e+005 1.877658900517e+005 1.877658900517e+005 1.877658900517e+005 1.877658900517e+005 1.877658900517e+005 1.877658900517e+005 1.835788090973e+005 1.835788090973e+005 1.835788090973e+005 1.835788090974e+005 1.835788090974e+005 1.835788090974e+005 1.835788090974e+005 1.835788090974e+005 1.835788090974e+005 1.792964846081e+005 1.792964846081e+005 1.792964846081e+005 1.792964846081e+005 1.792964846081e+005 1.792964846081e+005 1.792964846081e+005 1.792964846081e+005 1.792964846081e+005 1.749073482561e+005 1.749073482561e+005 1.749073482562e+005 1.749073482562e+005 1.749073482562e+005 1.749073482562e+005 1.749073482562e+005 1.749073482562e+005 1.749073482562e+005 1.703981084649e+005 1.703981084649e+005 1.703981084649e+005 1.703981084649e+005 1.703981084649e+005 1.703981084649e+005 1.703981084649e+005 1.703981084649e+005 1.703981084649e+005 1.657533801097e+005 1.657533801097e+005 1.657533801097e+005 1.657533801097e+005 1.657533801097e+005 1.657533801098e+005 1.657533801098e+005 1.657533801098e+005 1.657533801098e+005 1.609552079663e+005 1.609552079663e+005 1.609552079663e+005 1.609552079663e+005 1.609552079664e+005 1.609552079664e+005 1.609552079664e+005 1.609552079664e+005 1.609552079664e+005 1.559824449293e+005 1.559824449293e+005 1.559824449293e+005 1.559824449293e+005 1.559824449294e+005 1.559824449294e+005 1.559824449294e+005 1.559824449295e+005 1.559824449295e+005 1.508099281968e+005 1.508099281968e+005 1.508099281969e+005 1.508099281969e+005 1.508099281970e+005 1.508099281970e+005 1.508099281971e+005 1.508099281971e+005 1.508099281971e+005 1.454073691883e+005 1.454073691883e+005 1.454073691884e+005 1.454073691884e+005 1.454073691885e+005 1.454073691886e+005 1.454073691887e+005 1.454073691888e+005 1.454073691888e+005 1.397378288539e+005 1.397378288540e+005 1.397378288540e+005 1.397378288542e+005 1.397378288543e+005 1.397378288544e+005 1.397378288545e+005 1.397378288546e+005 1.397378288546e+005 1.337555771344e+005 1.337555771345e+005 1.337555771346e+005 1.337555771347e+005 1.337555771349e+005 1.337555771350e+005 1.337555771352e+005 1.337555771353e+005 1.337555771353e+005 1.274030126275e+005 1.274030126275e+005 1.274030126277e+005 1.274030126278e+005 1.274030126280e+005 1.274030126281e+005 1.274030126282e+005 1.274030126282e+005 1.274030126283e+005 1.206061052009e+005 1.206061052008e+005 1.206061052008e+005 1.206061052008e+005 1.206061052010e+005 1.206061052012e+005 1.206061052013e+005 1.206061052013e+005 1.206061052014e+005 1.132674051375e+005 1.132674051381e+005 1.132674051381e+005 1.132674051384e+005 1.132674051379e+005 1.132674051375e+005 1.132674051371e+005 1.132674051371e+005 1.132674051367e+005 1.052548692812e+005 1.052548692800e+005 1.052548692803e+005 1.052548692793e+005 1.052548692794e+005 1.052548692781e+005 1.052548692774e+005 1.052548692766e+005 1.052548692776e+005 9.638319092368e+004 9.638319092327e+004 9.638319091959e+004 9.638319091857e+004 9.638319092041e+004 9.638319093064e+004 9.638319093519e+004 9.638319093493e+004 9.638319093289e+004 8.638133447929e+004 8.638133449548e+004 8.638133450648e+004 8.638133451855e+004 8.638133449821e+004 8.638133443672e+004 8.638133440916e+004 8.638133441366e+004 8.638133440901e+004 7.483178692912e+004 7.483178684382e+004 7.483178682324e+004 7.483178676061e+004 7.483178683177e+004 7.483178705040e+004 7.483178713563e+004 7.483178710454e+004 7.483178714883e+004 6.103852752566e+004 6.103852776125e+004 6.103852772427e+004 6.103852790743e+004 6.103852785116e+004 6.103852746962e+004 6.103852741284e+004 6.103852756685e+004 6.103852741243e+004 4.380114415218e+004 4.380114379948e+004 4.380114389849e+004 4.380114368478e+004 4.380114378186e+004 4.380114436227e+004 4.380114450451e+004 4.380114425333e+004 4.380114460910e+004 2.100219700606e+004 2.100219658066e+004 2.100219738437e+004 2.100219740215e+004 2.100219685962e+004 2.100219614075e+004 2.100219512768e+004 2.100219606186e+004 2.100219553676e+004 -8.459192977537e+003 -8.459185830796e+003 -8.459192815330e+003 -8.459190700540e+003 -8.459187639917e+003 -8.459187008547e+003 -8.459178700436e+003 -8.459187871593e+003 -8.459183309699e+003 -3.874769642717e+004 -3.874768904851e+004 -3.874769748680e+004 -3.874769592905e+004 -3.874769146423e+004 -3.874768628388e+004 -3.874768383957e+004 -3.874767698372e+004 -3.874768106991e+004 -6.830415549957e+004 -6.830415672678e+004 -6.830416173638e+004 -6.830416007356e+004 -6.830415868155e+004 -6.830414458095e+004 -6.830414017751e+004 -6.830414343660e+004 -6.830413481285e+004 -9.713763250824e+004 -9.713764103982e+004 -9.713763540750e+004 -9.713763172101e+004 -9.713763118666e+004 -9.713762200626e+004 -9.713761294133e+004 -9.713761012397e+004 -9.713760830322e+004 -1.252666335823e+005 -1.252666183189e+005 -1.252666222053e+005 -1.252666135349e+005 -1.252666143234e+005 -1.252666086332e+005 -1.252666110614e+005 -1.252665909320e+005 -1.252665978497e+005 -1.527066832680e+005 -1.527066881894e+005 -1.527066831628e+005 -1.527066748031e+005 -1.527066735433e+005 -1.527066742849e+005 -1.527066640474e+005 -1.527066588947e+005 -1.527066555897e+005 -1.794737155596e+005 -1.794737198824e+005 -1.794737233568e+005 -1.794737091679e+005 -1.794737018944e+005 -1.794737031797e+005 -1.794736963398e+005 -1.794736929611e+005 -1.794736846312e+005 -2.055831135666e+005 -2.055831159920e+005 -2.055831128524e+005 -2.055831076372e+005 -2.055831005080e+005 -2.055830919251e+005 -2.055830866114e+005 -2.055830840633e+005 -2.055830860246e+005 -2.310499358775e+005 -2.310499297896e+005 -2.310499269157e+005 -2.310499187383e+005 -2.310499131783e+005 -2.310499030095e+005 -2.310498998057e+005 -2.310498942944e+005 -2.310498920251e+005 -2.558888782524e+005 -2.558888752310e+005 -2.558888687233e+005 -2.558888625389e+005 -2.558888516986e+005 -2.558888450711e+005 -2.558888438084e+005 -2.558888374586e+005 -2.558888341529e+005 -2.801143702039e+005 -2.801143682723e+005 -2.801143623328e+005 -2.801143537126e+005 -2.801143463039e+005 -2.801143410768e+005 -2.801143342508e+005 -2.801143314495e+005 -2.801143258431e+005 -3.037405772004e+005 -3.037405724655e+005 -3.037405698855e+005 -3.037405644398e+005 -3.037405581510e+005 -3.037405483340e+005 -3.037405416928e+005 -3.037405370978e+005 -3.037405374802e+005 -3.267814488631e+005 -3.267814466650e+005 -3.267814436426e+005 -3.267814390249e+005 -3.267814319617e+005 -3.267814216789e+005 -3.267814174307e+005 -3.267814116825e+005 -3.267814106337e+005 -3.492507487984e+005 -3.492507479631e+005 -3.492507455125e+005 -3.492507410376e+005 -3.492507358499e+005 -3.492507290053e+005 -3.492507252272e+005 -3.492507175220e+005 -3.492507214009e+005 -3.711620816509e+005 -3.711620771808e+005 -3.711620766613e+005 -3.711620751553e+005 -3.711620736583e+005 -3.711620661803e+005 -3.711620623288e+005 -3.711620595516e+005 -3.711620584573e+005 -3.925289044168e+005 -3.925289118807e+005 -3.925289085154e+005 -3.925289054166e+005 -3.925289047834e+005 -3.925289031073e+005 -3.925288972754e+005 -3.925288929232e+005 -3.925288910434e+005 -4.133645724274e+005 -4.133645749025e+005 -4.133645739909e+005 -4.133645684544e+005 -4.133645661492e+005 -4.133645644697e+005 -4.133645607326e+005 -4.133645611410e+005 -4.133645579533e+005 -4.336822871478e+005 -4.336822864300e+005 -4.336822848423e+005 -4.336822821384e+005 -4.336822805823e+005 -4.336822797329e+005 -4.336822758266e+005 -4.336822795996e+005 -4.336822761542e+005 -4.534951585288e+005 -4.534951592283e+005 -4.534951573154e+005 -4.534951535995e+005 -4.534951525992e+005 -4.534951532858e+005 -4.534951498721e+005 -4.534951505580e+005 -4.534951484359e+005 -4.728161931032e+005 -4.728161934706e+005 -4.728161915000e+005 -4.728161909167e+005 -4.728161887904e+005 -4.728161896607e+005 -4.728161881605e+005 -4.728161870876e+005 -4.728161891735e+005 -4.916582943138e+005 -4.916582956745e+005 -4.916582970979e+005 -4.916582968478e+005 -4.916582987500e+005 -4.916582947522e+005 -4.916582938094e+005 -4.916582948573e+005 -4.916582965996e+005 -5.100342772001e+005 -5.100342779181e+005 -5.100342816659e+005 -5.100342817758e+005 -5.100342804595e+005 -5.100342767734e+005 -5.100342781766e+005 -5.100342794101e+005 -5.100342805417e+005 -5.279568525071e+005 -5.279568558964e+005 -5.279568561135e+005 -5.279568555001e+005 -5.279568524918e+005 -5.279568533027e+005 -5.279568552582e+005 -5.279568525862e+005 -5.279568534393e+005 -5.454386351035e+005 -5.454386354377e+005 -5.454386353163e+005 -5.454386347980e+005 -5.454386338686e+005 -5.454386321100e+005 -5.454386346020e+005 -5.454386329343e+005 -5.454386326311e+005 -5.624921487312e+005 -5.624921457121e+005 -5.624921473897e+005 -5.624921463821e+005 -5.624921435479e+005 -5.624921447817e+005 -5.624921463811e+005 -5.624921457625e+005 -5.624921456075e+005 -5.791298224540e+005 -5.791298237662e+005 -5.791298238271e+005 -5.791298245201e+005 -5.791298209343e+005 -5.791298209130e+005 -5.791298241771e+005 -5.791298235584e+005 -5.791298220350e+005 -5.953640129222e+005 -5.953640139973e+005 -5.953640132969e+005 -5.953640120399e+005 -5.953640104742e+005 -5.953640114286e+005 -5.953640142844e+005 -5.953640138932e+005 -5.953640114043e+005 -6.112069691915e+005 -6.112069701658e+005 -6.112069699583e+005 -6.112069705426e+005 -6.112069676157e+005 -6.112069690228e+005 -6.112069711237e+005 -6.112069701290e+005 -6.112069684581e+005 -6.266708666797e+005 -6.266708676746e+005 -6.266708689656e+005 -6.266708663217e+005 -6.266708665439e+005 -6.266708676390e+005 -6.266708679546e+005 -6.266708689441e+005 -6.266708655271e+005 -6.417677933950e+005 -6.417677942920e+005 -6.417677938545e+005 -6.417677918709e+005 -6.417677938826e+005 -6.417677934220e+005 -6.417677925547e+005 -6.417677928131e+005 -6.417677922003e+005 -6.565097587635e+005 -6.565097579918e+005 -6.565097575604e+005 -6.565097571910e+005 -6.565097542958e+005 -6.565097544096e+005 -6.565097569217e+005 -6.565097555951e+005 -6.565097553622e+005 -6.709086878395e+005 -6.709086853569e+005 -6.709086851251e+005 -6.709086833168e+005 -6.709086816035e+005 -6.709086819761e+005 -6.709086843872e+005 -6.709086831737e+005 -6.709086841318e+005 -6.849764295040e+005 -6.849764287456e+005 -6.849764287322e+005 -6.849764279018e+005 -6.849764271229e+005 -6.849764270244e+005 -6.849764282407e+005 -6.849764286190e+005 -6.849764283710e+005 -6.987247635605e+005 -6.987247657471e+005 -6.987247662466e+005 -6.987247669569e+005 -6.987247655373e+005 -6.987247662945e+005 -6.987247675920e+005 -6.987247662988e+005 -6.987247655086e+005 -7.121654025852e+005 -7.121654004846e+005 -7.121654030575e+005 -7.121654032065e+005 -7.121654019121e+005 -7.121654042663e+005 -7.121654028540e+005 -7.121654030842e+005 -7.121654025444e+005 -7.253099732161e+005 -7.253099718526e+005 -7.253099716763e+005 -7.253099714239e+005 -7.253099710590e+005 -7.253099728991e+005 -7.253099725564e+005 -7.253099730715e+005 -7.253099711650e+005 -7.381700390737e+005 -7.381700424022e+005 -7.381700428548e+005 -7.381700426433e+005 -7.381700420180e+005 -7.381700436228e+005 -7.381700433137e+005 -7.381700434713e+005 -7.381700440633e+005 -7.507571167906e+005 -7.507571202104e+005 -7.507571192847e+005 -7.507571193164e+005 -7.507571222983e+005 -7.507571203569e+005 -7.507571217160e+005 -7.507571217448e+005 -7.507571220370e+005 -7.630826472790e+005 -7.630826488225e+005 -7.630826492574e+005 -7.630826482112e+005 -7.630826495662e+005 -7.630826500043e+005 -7.630826511474e+005 -7.630826496956e+005 -7.630826499310e+005 -7.751580149230e+005 -7.751580137913e+005 -7.751580139844e+005 -7.751580152887e+005 -7.751580139185e+005 -7.751580147420e+005 -7.751580148467e+005 -7.751580144022e+005 -7.751580139710e+005 -7.869945446182e+005 -7.869945457772e+005 -7.869945441865e+005 -7.869945447944e+005 -7.869945446137e+005 -7.869945453755e+005 -7.869945454569e+005 -7.869945443745e+005 -7.869945456054e+005 -7.986035190364e+005 -7.986035161101e+005 -7.986035154422e+005 -7.986035169162e+005 -7.986035160362e+005 -7.986035152827e+005 -7.986035158977e+005 -7.986035153610e+005 -7.986035167441e+005 -8.099961568505e+005 -8.099961538268e+005 -8.099961523496e+005 -8.099961537012e+005 -8.099961538389e+005 -8.099961541532e+005 -8.099961539760e+005 -8.099961544548e+005 -8.099961523772e+005 -8.211836374462e+005 -8.211836363945e+005 -8.211836350751e+005 -8.211836359360e+005 -8.211836365162e+005 -8.211836363429e+005 -8.211836365144e+005 -8.211836352688e+005 -8.211836352581e+005 -8.321770979777e+005 -8.321770960497e+005 -8.321770948630e+005 -8.321770952087e+005 -8.321770947349e+005 -8.321770932531e+005 -8.321770950167e+005 -8.321770944523e+005 -8.321770939224e+005 -8.429876248585e+005 -8.429876219948e+005 -8.429876213077e+005 -8.429876194672e+005 -8.429876195625e+005 -8.429876192969e+005 -8.429876195611e+005 -8.429876182384e+005 -8.429876175168e+005 -8.536262644702e+005 -8.536262635359e+005 -8.536262625029e+005 -8.536262611336e+005 -8.536262605339e+005 -8.536262596498e+005 -8.536262597571e+005 -8.536262583648e+005 -8.536262588876e+005 -8.641040323705e+005 -8.641040322196e+005 -8.641040300499e+005 -8.641040313457e+005 -8.641040290443e+005 -8.641040286127e+005 -8.641040283329e+005 -8.641040271910e+005 -8.641040260966e+005 -8.744319051903e+005 -8.744319041992e+005 -8.744319051337e+005 -8.744319028568e+005 -8.744319025322e+005 -8.744319013796e+005 -8.744319011521e+005 -8.744319009578e+005 -8.744318998842e+005 -8.846208253923e+005 -8.846208269704e+005 -8.846208263335e+005 -8.846208261540e+005 -8.846208247223e+005 -8.846208242924e+005 -8.846208234363e+005 -8.846208220415e+005 -8.846208213667e+005 -8.946817113076e+005 -8.946817131873e+005 -8.946817139179e+005 -8.946817124530e+005 -8.946817108427e+005 -8.946817109454e+005 -8.946817093739e+005 -8.946817080244e+005 -8.946817078675e+005 -9.046254477940e+005 -9.046254501306e+005 -9.046254499841e+005 -9.046254499501e+005 -9.046254489784e+005 -9.046254472040e+005 -9.046254460139e+005 -9.046254457187e+005 -9.046254450427e+005 -9.144629006428e+005 -9.144628987010e+005 -9.144628995632e+005 -9.144628994977e+005 -9.144628991830e+005 -9.144628966231e+005 -9.144628956000e+005 -9.144628963990e+005 -9.144628960687e+005 -9.242049026177e+005 -9.242049020514e+005 -9.242049018146e+005 -9.242049017183e+005 -9.242049007494e+005 -9.242048985129e+005 -9.242048991579e+005 -9.242048985266e+005 -9.242048988577e+005 -9.338622768518e+005 -9.338622760742e+005 -9.338622760260e+005 -9.338622745966e+005 -9.338622744448e+005 -9.338622734006e+005 -9.338622731224e+005 -9.338622725323e+005 -9.338622732407e+005 -9.434458230890e+005 -9.434458221882e+005 -9.434458225588e+005 -9.434458221915e+005 -9.434458210566e+005 -9.434458209375e+005 -9.434458203174e+005 -9.434458202476e+005 -9.434458190542e+005 -9.529663270161e+005 -9.529663276869e+005 -9.529663284623e+005 -9.529663280017e+005 -9.529663272656e+005 -9.529663275660e+005 -9.529663269166e+005 -9.529663269508e+005 -9.529663266775e+005 -9.624345653542e+005 -9.624345661250e+005 -9.624345666684e+005 -9.624345660837e+005 -9.624345660381e+005 -9.624345662603e+005 -9.624345654445e+005 -9.624345659759e+005 -9.624345660459e+005 -9.718613002647e+005 -9.718613003786e+005 -9.718613007222e+005 -9.718613008477e+005 -9.718612997047e+005 -9.718612995443e+005 -9.718612998487e+005 -9.718613001144e+005 -9.718612999570e+005 -9.812572840324e+005 -9.812572848547e+005 -9.812572854866e+005 -9.812572854139e+005 -9.812572851094e+005 -9.812572844310e+005 -9.812572844309e+005 -9.812572846011e+005 -9.812572847133e+005 -9.906332693226e+005 -9.906332697545e+005 -9.906332700064e+005 -9.906332698563e+005 -9.906332699495e+005 -9.906332694904e+005 -9.906332694900e+005 -9.906332696539e+005 -9.906332694960e+005 -1.000000000000e+006 -1.000000000000e+006 -1.000000000000e+006 -1.000000000000e+006 -1.000000000000e+006 -1.000000000000e+006 -1.000000000000e+006 -1.000000000000e+006 -1.000000000000e+006 
        </DataArray>
        <DataArray type="Float64" Name="NONWET_PRESSURE" format="ascii">