<?xml version="1.0"?>
<VTKFile type="UnstructuredGrid" version="0.1" byte_order="LittleEndian">
  <UnstructuredGrid>
    <Piece NumberOfPoints="909" NumberOfCells="800">
      <Points>
        <DataArray type="Float64" NumberOfComponents="3" format="ascii">
          0.000000000000e+000 0.000000000000e+000 0.000000000000e+000
          2.000000000000e+000 0.000000000000e+000 0.000000000000e+000
          2.000000000000e+000 2.500000000000e+000 0.000000000000e+000
          0.000000000000e+000 2.500000000000e+000 0.000000000000e+000
          2.000000000000e+000 5.000000000000e+000 0.000000000000e+000
          0.000000000000e+000 5.000000000000e+000 0.000000000000e+000
          2.000000000000e+000 7.500000000000e+000 0.000000000000e+000
          0.000000000000e+000 7.500000000000e+000 0.000000000000e+000
          2.000000000000e+000 1.000000000000e+001 0.000000000000e+000
          0.000000000000e+000 1.000000000000e+001 0.000000000000e+000
          2.000000000000e+000 1.250000000000e+001 0.000000000000e+000
          0.000000000000e+000 1.250000000000e+001 0.000000000000e+000
          2.000000000000e+000 1.500000000000e+001 0.000000000000e+000
          0.000000000000e+000 1.500000000000e+001 0.000000000000e+000
          2.000000000000e+000 1.750000000000e+001 0.000000000000e+000
          0.000000000000e+000 1.750000000000e+001 0.000000000000e+000
          2.000000000000e+000 2.000000000000e+001 0.000000000000e+000
          0.000000000000e+000 2.000000000000e+001 0.000000000000e+000
          4.000000000000e+000 0.000000000000e+000 0.000000000000e+000
          4.000000000000e+000 2.500000000000e+000 0.000000000000e+000
          4.000000000000e+000 5.000000000000e+000 0.000000000000e+000
          4.000000000000e+000 7.500000000000e+000 0.000000000000e+000
          4.000000000000e+000 1.000000000000e+001 0.000000000000e+000
          4.000000000000e+000 1.250000000000e+001 0.000000000000e+000
          4.000000000000e+000 1.500000000000e+001 0.000000000000e+000
          4.000000000000e+000 1.750000000000e+001 0.000000000000e+000
          4.000000000000e+000 2.000000000000e+001 0.000000000000e+000
          6.000000000000e+000 0.000000000000e+000 0.000000000000e+000
          6.000000000000e+000 2.500000000000e+000 0.000000000000e+000
          6.000000000000e+000 5.000000000000e+000 0.000000000000e+000
          6.000000000000e+000 7.500000000000e+000 0.000000000000e+000
          6.000000000000e+000 1.000000000000e+001 0.000000000000e+000
          6.000000000000e+000 1.250000000000e+001 0.000000000000e+000
          6.000000000000e+000 1.500000000000e+001 0.000000000000e+000
          6.000000000000e+000 1.750000000000e+001 0.000000000000e+000
          6.000000000000e+000 2.000000000000e+001 0.000000000000e+000
          8.000000000000e+000 0.000000000000e+000 0.000000000000e+000
          8.000000000000e+000 2.500000000000e+000 0.000000000000e+000
          8.000000000000e+000 5.000000000000e+000 0.000000000000e+000
          8.000000000000e+000 7.500000000000e+000 0.000000000000e+000
          8.000000000000e+000 1.000000000000e+001 0.000000000000e+000
          8.000000000000e+000 1.250000000000e+001 0.000000000000e+000
          8.000000000000e+000 1.500000000000e+001 0.000000000000e+000
          8.000000000000e+000 1.750000000000e+001 0.000000000000e+000
          8.000000000000e+000 2.000000000000e+001 0.000000000000e+000
          1.000000000000e+001 0.000000000000e+000 0.000000000000e+000
          1.000000000000e+001 2.500000000000e+000 0.000000000000e+000
          1.000000000000e+001 5.000000000000e+000 0.000000000000e+000
          1.000000000000e+001 7.500000000000e+000 0.000000000000e+000
          1.000000000000e+001 1.000000000000e+001 0.000000000000e+000
          1.000000000000e+001 1.250000000000e+001 0.000000000000e+000
          1.000000000000e+001 1.500000000000e+001 0.000000000000e+000
          1.000000000000e+001 1.750000000000e+001 0.000000000000e+000
          1.000000000000e+001 2.000000000000e+001 0.000000000000e+000
          1.200000000000e+001 0.000000000000e+000 0.000000000000e+000
          1.200000000000e+001 2.500000000000e+000 0.000000000000e+000
          1.200000000000e+001 5.000000000000e+000 0.000000000000e+000
          1.200000000000e+001 7.500000000000e+000 0.000000000000e+000
          1.200000000000e+001 1.000000000000e+001 0.000000000000e+000
          1.200000000000e+001 1.250000000000e+001 0.000000000000e+000
          1.200000000000e+001 1.500000000000e+001 0.000000000000e+000
          1.200000000000e+001 1.750000000000e+001 0.000000000000e+000
          1.200000000000e+001 2.000000000000e+001 0.000000000000e+000
          1.400000000000e+001 0.000000000000e+000 0.000000000000e+000
          1.400000000000e+001 2.500000000000e+000 0.000000000000e+000
          1.400000000000e+001 5.000000000000e+000 0.000000000000e+000
          1.400000000000e+001 7.500000000000e+000 0.000000000000e+000
          1.400000000000e+001 1.000000000000e+001 0.000000000000e+000
          1.400000000000e+001 1.250000000000e+001 0.000000000000e+000
          1.400000000000e+001 1.500000000000e+001 0.000000000000e+000
          1.400000000000e+001 1.750000000000e+001 0.000000000000e+000
          1.400000000000e+001 2.000000000000e+001 0.000000000000e+000
          1.600000000000e+001 0.000000000000e+000 0.000000000000e+000
          1.600000000000e+001 2.500000000000e+000 0.000000000000e+000
          1.600000000000e+001 5.000000000000e+000 0.000000000000e+000
          1.600000000000e+001 7.500000000000e+000 0.000000000000e+000
          1.600000000000e+001 1.000000000000e+001 0.000000000000e+000
          1.600000000000e+001 1.250000000000e+001 0.000000000000e+000
          1.600000000000e+001 1.500000000000e+001 0.000000000000e+000
          1.600000000000e+001 1.750000000000e+001 0.000000000000e+000
          1.600000000000e+001 2.000000000000e+001 0.000000000000e+000
          1.800000000000e+001 0.000000000000e+000 0.000000000000e+000
          1.800000000000e+001 2.500000000000e+000 0.000000000000e+000
          1.800000000000e+001 5.000000000000e+000 0.000000000000e+000
          1.800000000000e+001 7.500000000000e+000 0.000000000000e+000
          1.800000000000e+001 1.000000000000e+001 0.000000000000e+000
          1.800000000000e+001 1.250000000000e+001 0.000000000000e+000
          1.800000000000e+001 1.500000000000e+001 0.000000000000e+000
          1.800000000000e+001 1.750000000000e+001 0.000000000000e+000
          1.800000000000e+001 2.000000000000e+001 0.000000000000e+000
          2.000000000000e+001 0.000000000000e+000 0.000000000000e+000
          2.000000000000e+001 2.500000000000e+000 0.000000000000e+000
          2.000000000000e+001 5.000000000000e+000 0.000000000000e+000
          2.000000000000e+001 7.500000000000e+000 0.000000000000e+000
          2.000000000000e+001 1.000000000000e+001 0.000000000000e+000
          2.000000000000e+001 1.250000000000e+001 0.000000000000e+000
          2.000000000000e+001 1.500000000000e+001 0.000000000000e+000
          2.000000000000e+001 1.750000000000e+001 0.000000000000e+000
          2.000000000000e+001 2.000000000000e+001 0.000000000000e+000
          2.200000000000e+001 0.000000000000e+000 0.000000000000e+000
          2.200000000000e+001 2.500000000000e+000 0.000000000000e+000
          2.200000000000e+001 5.000000000000e+000 0.000000000000e+000
          2.200000000000e+001 7.500000000000e+000 0.000000000000e+000
          2.200000000000e+001 1.000000000000e+001 0.000000000000e+000
          2.200000000000e+001 1.250000000000e+001 0.000000000000e+000
          2.200000000000e+001 1.500000000000e+001 0.000000000000e+000
          2.200000000000e+001 1.750000000000e+001 0.000000000000e+000
          2.200000000000e+001 2.000000000000e+001 0.000000000000e+000
          2.400000000000e+001 0.000000000000e+000 0.000000000000e+000
          2.400000000000e+001 2.500000000000e+000 0.000000000000e+000
          2.400000000000e+001 5.000000000000e+000 0.000000000000e+000
          2.400000000000e+001 7.500000000000e+000 0.000000000000e+000
          2.400000000000e+001 1.000000000000e+001 0.000000000000e+000
          2.400000000000e+001 1.250000000000e+001 0.000000000000e+000
          2.400000000000e+001 1.500000000000e+001 0.000000000000e+000
          2.400000000000e+001 1.750000000000e+001 0.000000000000e+000
          2.400000000000e+001 2.000000000000e+001 0.000000000000e+000
          2.600000000000e+001 0.000000000000e+000 0.000000000000e+000
          2.600000000000e+001 2.500000000000e+000 0.000000000000e+000
          2.600000000000e+001 5.000000000000e+000 0.000000000000e+000
          2.600000000000e+001 7.500000000000e+000 0.000000000000e+000
          2.600000000000e+001 1.000000000000e+001 0.000000000000e+000
          2.600000000000e+001 1.250000000000e+001 0.000000000000e+000
          2.600000000000e+001 1.500000000000e+001 0.000000000000e+000
          2.600000000000e+001 1.750000000000e+001 0.000000000000e+000
          2.600000000000e+001 2.000000000000e+001 0.000000000000e+000
          2.800000000000e+001 0.000000000000e+000 0.000000000000e+000
          2.800000000000e+001 2.500000000000e+000 0.000000000000e+000
          2.800000000000e+001 5.000000000000e+000 0.000000000000e+000
          2.800000000000e+001 7.500000000000e+000 0.000000000000e+000
          2.800000000000e+001 1.000000000000e+001 0.000000000000e+000
          2.800000000000e+001 1.250000000000e+001 0.000000000000e+000
          2.800000000000e+001 1.500000000000e+001 0.000000000000e+000
          2.800000000000e+001 1.750000000000e+001 0.000000000000e+000
          2.800000000000e+001 2.000000000000e+001 0.000000000000e+000
          3.000000000000e+001 0.000000000000e+000 0.000000000000e+000
          3.000000000000e+001 2.500000000000e+000 0.000000000000e+000
          3.000000000000e+001 5.000000000000e+000 0.000000000000e+000
          3.000000000000e+001 7.500000000000e+000 0.000000000000e+000
[...]
      <PointData Scalars="LIQUID_PRESSURE">
        <DataArray type="Float64" Name="LIQUID_PRESSURE" format="ascii">
          1.097701497266e+006 1.097707826526e+006 1.097707826541e+006 1.097701497168e+006 1.097707826569e+006 1.097701497102e+006 1.097707826531e+006 1.097701497201e+006 1.097707826553e+006 1.097701497177e+006 1.097707826599e+006 1.097701497042e+006 1.097707826581e+006 1.097701497023e+006 1.097707826598e+006 1.097701496971e+006 1.097707826631e+006 1.097701496893e+006 1.097660390893e+006 1.097660390938e+006 1.097660390963e+006 1.097660390912e+006 1.097660390923e+006 1.097660390982e+006 1.097660390958e+006 1.097660390981e+006 1.097660391021e+006 1.097555953994e+006 1.097555954026e+006 1.097555954043e+006 1.097555954006e+006 1.097555954014e+006 1.097555954043e+006 1.097555954023e+006 1.097555954029e+006 1.097555954047e+006 1.097485797109e+006 1.097485797126e+006 1.097485797142e+006 1.097485797112e+006 1.097485797111e+006 1.097485797125e+006 1.097485797111e+006 1.097485797105e+006 1.097485797117e+006 1.097326764627e+006 1.097326764640e+006 1.097326764645e+006 1.097326764635e+006 1.097326764625e+006 1.097326764642e+006 1.097326764630e+006 1.097326764625e+006 1.097326764632e+006 1.097148231388e+006 1.097148231396e+006 1.097148231401e+006 1.097148231393e+006 1.097148231392e+006 1.097148231397e+006 1.097148231393e+006 1.097148231392e+006 1.097148231393e+006 1.096981178360e+006 1.096981178362e+006 1.096981178366e+006 1.096981178360e+006 1.096981178364e+006 1.096981178362e+006 1.096981178363e+006 1.096981178361e+006 1.096981178362e+006 1.096719259007e+006 1.096719259005e+006 1.096719259007e+006 1.096719259004e+006 1.096719259006e+006 1.096719259008e+006 1.096719259008e+006 1.096719259010e+006 1.096719259005e+006 1.096482251951e+006 1.096482251950e+006 1.096482251951e+006 1.096482251950e+006 1.096482251950e+006 1.096482251949e+006 1.096482251950e+006 1.096482251949e+006 1.096482251951e+006 1.096191297935e+006 1.096191297938e+006 1.096191297938e+006 1.096191297937e+006 1.096191297938e+006 1.096191297937e+006 1.096191297937e+006 1.096191297937e+006 1.096191297937e+006 1.095860121003e+006 1.095860121006e+006 1.095860121004e+006 1.095860121005e+006 1.095860121002e+006 1.095860121003e+006 1.095860121008e+006 1.095860121005e+006 1.095860121007e+006 1.095528452140e+006 1.095528452139e+006 1.095528452141e+006 1.095528452140e+006 1.095528452139e+006 1.095528452142e+006 1.095528452139e+006 1.095528452140e+006 1.095528452140e+006 1.095129588991e+006 1.095129588990e+006 1.095129588992e+006 1.095129588992e+006 1.095129588993e+006 1.095129588992e+006 1.095129588991e+006 1.095129588990e+006 1.095129588990e+006 1.094742608701e+006 1.094742608705e+006 1.094742608702e+006 1.094742608704e+006 1.094742608703e+006 1.094742608703e+006 1.094742608704e+006 1.094742608705e+006 1.094742608702e+006 1.094294420056e+006 1.094294420055e+006 1.094294420058e+006 1.094294420055e+006 1.094294420057e+006 1.094294420055e+006 1.094294420056e+006 1.094294420055e+006 1.094294420056e+006 1.093832439942e+006 1.093832439940e+006 1.093832439940e+006 1.093832439940e+006 1.093832439938e+006 1.093832439941e+006 1.093832439939e+006 1.093832439940e+006 1.093832439939e+006 1.093344976709e+006 1.093344976710e+006 1.093344976709e+006 1.093344976710e+006 1.093344976709e+006 1.093344976709e+006 1.093344976710e+006 1.093344976711e+006 1.093344976710e+006 1.092799167137e+006 1.092799167137e+006 1.092799167136e+006 1.092799167136e+006 1.092799167137e+006 1.092799167138e+006 1.092799167137e+006 1.092799167136e+006 1.092799167138e+006 1.092270763618e+006 1.092270763618e+006 1.092270763617e+006 1.092270763617e+006 1.092270763617e+006 1.092270763617e+006 1.092270763617e+006 1.092270763616e+006 1.092270763619e+006 1.091671154841e+006 1.091671154840e+006 1.091671154841e+006 1.091671154840e+006 1.091671154840e+006 1.091671154841e+006 1.091671154840e+006 1.091671154840e+006 1.091671154840e+006 1.091069710951e+006 1.091069710951e+006 1.091069710952e+006 1.091069710950e+006 1.091069710951e+006 1.091069710950e+006 1.091069710951e+006 1.091069710952e+006 1.091069710950e+006 1.090430885945e+006 1.090430885944e+006 1.090430885945e+006 1.090430885946e+006 1.090430885945e+006 1.090430885946e+006 1.090430885946e+006 1.090430885945e+006 1.090430885946e+006 1.089762983319e+006 1.089762983320e+006 1.089762983319e+006 1.089762983319e+006 1.089762983319e+006 1.089762983320e+006 1.089762983319e+006 1.089762983319e+006 1.089762983320e+006 1.089076926636e+006 1.089076926635e+006 1.089076926635e+006 1.089076926634e+006 1.089076926636e+006 1.089076926634e+006 1.089076926636e+006 1.089076926635e+006 1.089076926635e+006 1.088338866968e+006 1.088338866968e+006 1.088338866968e+006 1.088338866969e+006 1.088338866968e+006 1.088338866969e+006 1.088338866968e+006 1.088338866968e+006 1.088338866968e+006 1.087603519516e+006 1.087603519515e+006 1.087603519515e+006 1.087603519516e+006 1.087603519516e+006 1.087603519515e+006 1.087603519515e+006 1.087603519516e+006 1.087603519515e+006 1.086818835282e+006 1.086818835283e+006 1.086818835283e+006 1.086818835283e+006 1.086818835283e+006 1.086818835283e+006 1.086818835283e+006 1.086818835283e+006 1.086818835283e+006 1.086011527356e+006 1.086011527357e+006 1.086011527356e+006 1.086011527356e+006 1.086011527356e+006 1.086011527356e+006 1.086011527356e+006 1.086011527356e+006 1.086011527356e+006 1.085197213390e+006 1.085197213389e+006 1.085197213390e+006 1.085197213390e+006 1.085197213390e+006 1.085197213389e+006 1.085197213390e+006 1.085197213389e+006 1.085197213389e+006 1.084320155187e+006 1.084320155187e+006 1.084320155187e+006 1.084320155186e+006 1.084320155187e+006 1.084320155187e+006 1.084320155187e+006 1.084320155187e+006 1.084320155187e+006 1.083448676067e+006 1.083448676067e+006 1.083448676067e+006 1.083448676067e+006 1.083448676067e+006 1.083448676067e+006 1.083448676067e+006 1.083448676067e+006 1.083448676067e+006 1.082539498182e+006 1.082539498182e+006 1.082539498182e+006 1.082539498182e+006 1.082539498182e+006 1.082539498182e+006 1.082539498182e+006 1.082539498182e+006 1.082539498182e+006 1.081588284967e+006 1.081588284967e+006 1.081588284967e+006 1.081588284967e+006 1.081588284967e+006 1.081588284967e+006 1.081588284967e+006 1.081588284967e+006 1.081588284967e+006 1.080645382900e+006 1.080645382900e+006 1.080645382900e+006 1.080645382900e+006 1.080645382900e+006 1.080645382900e+006 1.080645382901e+006 1.080645382900e+006 1.080645382900e+006 1.079646478115e+006 1.079646478115e+006 1.079646478115e+006 1.079646478115e+006 1.079646478115e+006 1.079646478115e+006 1.079646478115e+006 1.079646478115e+006 1.079646478115e+006 1.078632526706e+006 1.078632526706e+006 1.078632526706e+006 1.078632526706e+006 1.078632526706e+006 1.078632526706e+006 1.078632526706e+006 1.078632526706e+006 1.078632526706e+006 1.077606174815e+006 1.077606174815e+006 1.077606174815e+006 1.077606174814e+006 1.077606174815e+006 1.077606174815e+006 1.077606174815e+006 1.077606174815e+006 1.077606174815e+006 1.076534245357e+006 1.076534245357e+006 1.076534245356e+006 1.076534245357e+006 1.076534245357e+006 1.076534245357e+006 1.076534245357e+006 1.076534245357e+006 1.076534245357e+006 1.075450880303e+006 1.075450880303e+006 1.075450880303e+006 1.075450880303e+006 1.075450880302e+006 1.075450880302e+006 1.075450880302e+006 1.075450880303e+006 1.075450880302e+006 1.074354165035e+006 1.074354165034e+006 1.074354165035e+006 1.074354165035e+006 1.074354165035e+006 1.074354165035e+006 1.074354165035e+006 1.074354165034e+006 1.074354165035e+006 1.073200915887e+006 1.073200915887e+006 1.073200915887e+006 1.073200915887e+006 1.073200915887e+006 1.073200915887e+006 1.073200915887e+006 1.073200915887e+006 1.073200915887e+006 1.072049879431e+006 1.072049879431e+006 1.072049879431e+006 1.072049879430e+006 1.072049879431e+006 1.072049879431e+006 1.072049879430e+006 1.072049879431e+006 1.072049879431e+006 1.070874569327e+006 1.070874569326e+006 1.070874569326e+006 1.070874569326e+006 1.070874569326e+006 1.070874569326e+006 1.070874569326e+006 1.070874569326e+006 1.070874569326e+006 1.069674339906e+006 1.069674339906e+006 1.069674339906e+006 1.069674339906e+006 1.069674339906e+006 1.069674339906e+006 1.069674339906e+006 1.069674339906e+006 1.069674339906e+006 1.068458949501e+006 1.068458949501e+006 1.068458949501e+006 1.068458949501e+006 1.068458949501e+006 1.068458949501e+006 1.068458949501e+006 1.068458949501e+006 1.068458949501e+006 1.067194105319e+006 1.067194105319e+006 1.067194105319e+006 1.067194105319e+006 1.067194105318e+006 1.067194105318e+006 1.067194105319e+006 1.067194105319e+006 1.067194105318e+006 1.065919006973e+006 1.065919006973e+006 1.065919006973e+006 1.065919006973e+006 1.065919006973e+006 1.065919006973e+006 1.065919006973e+006 1.065919006973e+006 1.065919006973e+006 1.064668326465e+006 1.064668326465e+006 1.064668326465e+006 1.064668326465e+006 1.064668326465e+006 1.064668326465e+006 1.064668326465e+006 1.064668326465e+006 1.064668326465e+006 1.063350575776e+006 1.063350575776e+006 1.063350575776e+006 1.063350575776e+006 1.063350575776e+006 1.063350575776e+006 1.063350575776e+006 1.063350575776e+006 1.063350575776e+006 1.062016260680e+006 1.062016260681e+006 1.062016260680e+006 1.062016260680e+006 1.062016260680e+006 1.062016260680e+006 1.062016260680e+006 1.062016260680e+006 1.062016260680e+006 1.060660464750e+006 1.060660464749e+006 1.060660464750e+006 1.060660464750e+006 1.060660464750e+006 1.060660464750e+006 1.060660464750e+006 1.060660464749e+006 1.060660464749e+006 1.059280729602e+006 1.059280729602e+006 1.059280729602e+006 1.059280729602e+006 1.059280729602e+006 1.059280729602e+006 1.059280729602e+006 1.059280729602e+006 1.059280729603e+006 1.057916382684e+006 1.057916382684e+006 1.057916382684e+006 1.057916382684e+006 1.057916382684e+006 1.057916382685e+006 1.057916382684e+006 1.057916382684e+006 1.057916382684e+006 1.056534768834e+006 1.056534768833e+006 1.056534768833e+006 1.056534768833e+006 1.056534768834e+006 1.056534768833e+006 1.056534768833e+006 1.056534768834e+006 1.056534768834e+006 1.055114346852e+006 1.055114346852e+006 1.055114346852e+006 1.055114346852e+006 1.055114346852e+006 1.055114346852e+006 1.055114346852e+006 1.055114346852e+006 1.055114346852e+006 1.053670989028e+006 1.053670989029e+006 1.053670989029e+006 1.053670989028e+006 1.053670989029e+006 1.053670989029e+006 1.053670989029e+006 1.053670989029e+006 1.053670989029e+006 1.052230702086e+006 1.052230702087e+006 1.052230702087e+006 1.052230702087e+006 1.052230702087e+006 1.052230702087e+006 1.052230702087e+006 1.052230702087e+006 1.052230702087e+006 1.050739217920e+006 1.050739217920e+006 1.050739217921e+006 1.050739217921e+006 1.050739217920e+006 1.050739217920e+006 1.050739217920e+006 1.050739217921e+006 1.050739217920e+006 1.049219272011e+006 1.049219272011e+006 1.049219272011e+006 1.049219272012e+006 1.049219272010e+006 1.049219272010e+006 1.049219272010e+006 1.049219272010e+006 1.049219272010e+006 1.047789506138e+006 1.047789506138e+006 1.047789506139e+006 1.047789506139e+006 1.047789506139e+006 1.047789506139e+006 1.047789506139e+006 1.047789506139e+006 1.047789506139e+006 1.046349145137e+006 1.046349145137e+006 1.046349145138e+006 1.046349145140e+006 1.046349145141e+006 1.046349145142e+006 1.046349145143e+006 1.046349145144e+006 1.046349145144e+006 1.044777268742e+006 1.044777268742e+006 1.044777268742e+006 1.044777268739e+006 1.044777268738e+006 1.044777268737e+006 1.044777268736e+006 1.044777268737e+006 1.044777268736e+006 1.043188374071e+006 1.043188374069e+006 1.043188374067e+006 1.043188374064e+006 1.043188374060e+006 1.043188374058e+006 1.043188374056e+006 1.043188374055e+006 1.043188374055e+006 1.041807092992e+006 1.041807092993e+006 1.041807092997e+006 1.041807093012e+006 1.041807093022e+006 1.041807093026e+006 1.041807093028e+006 1.041807093030e+006 1.041807093031e+006 1.040075551127e+006 1.040075551128e+006 1.040075551127e+006 1.040075551104e+006 1.040075551094e+006 1.040075551090e+006 1.040075551086e+006 1.040075551084e+006 1.040075551083e+006 1.038730385053e+006 1.038730385056e+006 1.038730385050e+006 1.038730385061e+006 1.038730385058e+006 1.038730385060e+006 1.038730385061e+006 1.038730385062e+006 1.038730385061e+006 1.037030283660e+006 1.037030283658e+006 1.037030283655e+006 1.037030283670e+006 1.037030283671e+006 1.037030283672e+006 1.037030283674e+006 1.037030283674e+006 1.037030283675e+006 1.035483605661e+006 1.035483605659e+006 1.035483605655e+006 1.035483605663e+006 1.035483605661e+006 1.035483605661e+006 1.035483605663e+006 1.035483605663e+006 1.035483605663e+006 1.034005924506e+006 1.034005924503e+006 1.034005924501e+006 1.034005924504e+006 1.034005924502e+006 1.034005924500e+006 1.034005924501e+006 1.034005924501e+006 1.034005924502e+006 1.032485409907e+006 1.032485409904e+006 1.032485409903e+006 1.032485409904e+006 1.032485409902e+006 1.032485409901e+006 1.032485409902e+006 1.032485409901e+006 1.032485409900e+006 1.031004773922e+006 1.031004773921e+006 1.031004773920e+006 1.031004773920e+006 1.031004773920e+006 1.031004773919e+006 1.031004773920e+006 1.031004773919e+006 1.031004773919e+006 1.029467879176e+006 1.029467879176e+006 1.029467879175e+006 1.029467879176e+006 1.029467879175e+006 1.029467879174e+006 1.029467879175e+006 1.029467879175e+006 1.029467879174e+006 1.027973995997e+006 1.027973995997e+006 1.027973995997e+006 1.027973995997e+006 1.027973995997e+006 1.027973995997e+006 1.027973995997e+006 1.027973995997e+006 1.027973995996e+006 1.026561182491e+006 1.026561182491e+006 1.026561182491e+006 1.026561182491e+006 1.026561182491e+006 1.026561182490e+006 1.026561182490e+006 1.026561182491e+006 1.026561182491e+006 1.025196964328e+006 1.025196964326e+006 1.025196964326e+006 1.025196964326e+006 1.025196964327e+006 1.025196964326e+006 1.025196964325e+006 1.025196964326e+006 1.025196964327e+006 1.024064482601e+006 1.024064482601e+006 1.024064482601e+006 1.024064482600e+006 1.024064482600e+006 1.024064482600e+006 1.024064482600e+006 1.024064482600e+006 1.024064482599e+006 1.023061610612e+006 1.023061610612e+006 1.023061610612e+006 1.023061610611e+006 1.023061610611e+006 1.023061610611e+006 1.023061610612e+006 1.023061610611e+006 1.023061610611e+006 1.022058760199e+006 1.022058760199e+006 1.022058760199e+006 1.022058760198e+006 1.022058760198e+006 1.022058760198e+006 1.022058760198e+006 1.022058760198e+006 1.022058760198e+006 1.021055932077e+006 1.021055932076e+006 1.021055932076e+006 1.021055932076e+006 1.021055932076e+006 1.021055932076e+006 1.021055932076e+006 1.021055932076e+006 1.021055932076e+006 1.020053125761e+006 1.020053125760e+006 1.020053125761e+006 1.020053125761e+006 1.020053125761e+006 1.020053125761e+006 1.020053125760e+006 1.020053125761e+006 1.020053125760e+006 1.019050340365e+006 1.019050340364e+006 1.019050340365e+006 1.019050340364e+006 1.019050340365e+006 1.019050340364e+006 1.019050340364e+006 1.019050340364e+006 1.019050340364e+006 1.018047574882e+006 1.018047574882e+006 1.018047574882e+006 1.018047574882e+006 1.018047574882e+006 1.018047574882e+006 1.018047574882e+006 1.018047574882e+006 1.018047574882e+006 1.017044828282e+006 1.017044828282e+006 1.017044828282e+006 1.017044828281e+006 1.017044828282e+006 1.017044828282e+006 1.017044828281e+006 1.017044828281e+006 1.017044828281e+006 1.016042099529e+006 1.016042099529e+006 1.016042099529e+006 1.016042099528e+006 1.016042099528e+006 1.016042099529e+006 1.016042099529e+006 1.016042099528e+006 1.016042099528e+006 1.015039387589e+006 1.015039387589e+006 1.015039387589e+006 1.015039387588e+006 1.015039387588e+006 1.015039387588e+006 1.015039387588e+006 1.015039387588e+006 1.015039387588e+006 1.014036691423e+006 1.014036691423e+006 1.014036691423e+006 1.014036691423e+006 1.014036691422e+006 1.014036691422e+006 1.014036691422e+006 1.014036691422e+006 1.014036691422e+006 1.013034009983e+006 1.013034009983e+006 1.013034009983e+006 1.013034009983e+006 1.013034009983e+006 1.013034009983e+006 1.013034009983e+006 1.013034009983e+006 1.013034009983e+006 1.012031342213e+006 1.012031342213e+006 1.012031342213e+006 1.012031342213e+006 1.012031342213e+006 1.012031342213e+006 1.012031342213e+006 1.012031342213e+006 1.012031342213e+006 1.011028687045e+006 1.011028687046e+006 1.011028687045e+006 1.011028687045e+006 1.011028687045e+006 1.011028687045e+006 1.011028687045e+006 1.011028687045e+006 1.011028687045e+006 1.010026043404e+006 1.010026043404e+006 1.010026043404e+006 1.010026043404e+006 1.010026043404e+006 1.010026043404e+006 1.010026043404e+006 1.010026043404e+006 1.010026043404e+006 1.009023410207e+006 1.009023410207e+006 1.009023410207e+006 1.009023410206e+006 1.009023410207e+006 1.009023410207e+006 1.009023410206e+006 1.009023410206e+006 1.009023410206e+006 1.008020786362e+006 1.008020786363e+006 1.008020786362e+006 1.008020786362e+006 1.008020786362e+006 1.008020786362e+006 1.008020786363e+006 1.008020786362e+006 1.008020786362e+006 1.007018170777e+006 1.007018170777e+006 1.007018170777e+006 1.007018170777e+006 1.007018170777e+006 1.007018170777e+006 1.007018170777e+006 1.007018170777e+006 1.007018170777e+006 1.006015562349e+006 1.006015562349e+006 1.006015562349e+006 1.006015562349e+006 1.006015562349e+006 1.006015562349e+006 1.006015562349e+006 1.006015562349e+006 1.006015562349e+006 1.005012959974e+006 1.005012959974e+006 1.005012959974e+006 1.005012959974e+006 1.005012959974e+006 1.005012959974e+006 1.005012959974e+006 1.005012959974e+006 1.005012959974e+006 1.004010362544e+006 1.004010362544e+006 1.004010362544e+006 1.004010362544e+006 1.004010362544e+006 1.004010362544e+006 1.004010362544e+006 1.004010362544e+006 1.004010362544e+006 1.003007768947e+006 1.003007768947e+006 1.003007768947e+006 1.003007768947e+006 1.003007768947e+006 1.003007768947e+006 1.003007768947e+006 1.003007768947e+006 1.003007768947e+006 1.002005178068e+006 1.002005178068e+006 1.002005178068e+006 1.002005178068e+006 1.002005178068e+006 1.002005178068e+006 1.002005178068e+006 1.002005178068e+006 1.002005178068e+006 1.001002588791e+006 1.001002588791e+006 1.001002588791e+006 1.001002588791e+006 1.001002588791e+006 1.001002588791e+006 1.001002588791e+006 1.001002588791e+006 1.001002588791e+006 1.000000000000e+006 1.000000000000e+006 1.000000000000e+006 1.000000000000e+006 1.000000000000e+006 1.000000000000e+006 1.000000000000e+006 1.000000000000e+006 1.000000000000e+006 
        </DataArray>
        <DataArray type="Float64" Name="MOLAR_FRACTION" format="ascii">