<?xml version="1.0"?>
<VTKFile type="UnstructuredGrid" version="0.1" byte_order="LittleEndian">
  <UnstructuredGrid>
    <Piece NumberOfPoints="909" NumberOfCells="800">
      <Points>
        <DataArray type="Float64" NumberOfComponents="3" format="ascii">
          0.000000000000e+000 0.000000000000e+000 0.000000000000e+000
          2.000000000000e+000 0.000000000000e+000 0.000000000000e+000
          2.000000000000e+000 2.500000000000e+000 0.000000000000e+000
          0.000000000000e+000 2.500000000000e+000 0.000000000000e+000
          2.000000000000e+000 5.000000000000e+000 0.000000000000e+000
          0.000000000000e+000 5.000000000000e+000 0.000000000000e+000
          2.000000000000e+000 7.500000000000e+000 0.000000000000e+000
          0.000000000000e+000 7.500000000000e+000 0.000000000000e+000
          2.000000000000e+000 1.000000000000e+001 0.000000000000e+000
          0.000000000000e+000 1.000000000000e+001 0.000000000000e+000
          2.000000000000e+000 1.250000000000e+001 0.000000000000e+000
          0.000000000000e+000 1.250000000000e+001 0.000000000000e+000
          2.000000000000e+000 1.500000000000e+001 0.000000000000e+000
          0.000000000000e+000 1.500000000000e+001 0.000000000000e+000
          2.000000000000e+000 1.750000000000e+001 0.000000000000e+000
          0.000000000000e+000 1.750000000000e+001 0.000000000000e+000
          2.000000000000e+000 2.000000000000e+001 0.000000000000e+000
          0.000000000000e+000 2.000000000000e+001 0.000000000000e+000
          4.000000000000e+000 0.000000000000e+000 0.000000000000e+000
          4.000000000000e+000 2.500000000000e+000 0.000000000000e+000
          4.000000000000e+000 5.000000000000e+000 0.000000000000e+000
          4.000000000000e+000 7.500000000000e+000 0.000000000000e+000
          4.000000000000e+000 1.000000000000e+001 0.000000000000e+000
          4.000000000000e+000 1.250000000000e+001 0.000000000000e+000
          4.000000000000e+000 1.500000000000e+001 0.000000000000e+000
          4.000000000000e+000 1.750000000000e+001 0.000000000000e+000
          4.000000000000e+000 2.000000000000e+001 0.000000000000e+000
          6.000000000000e+000 0.000000000000e+000 0.000000000000e+000
          6.000000000000e+000 2.500000000000e+000 0.000000000000e+000
          6.000000000000e+000 5.000000000000e+000 0.000000000000e+000
          6.000000000000e+000 7.500000000000e+000 0.000000000000e+000
          6.000000000000e+000 1.000000000000e+001 0.000000000000e+000
          6.000000000000e+000 1.250000000000e+001 0.000000000000e+000
          6.000000000000e+000 1.500000000000e+001 0.000000000000e+000
          6.000000000000e+000 1.750000000000e+001 0.000000000000e+000
          6.000000000000e+000 2.000000000000e+001 0.000000000000e+000
          8.000000000000e+000 0.000000000000e+000 0.000000000000e+000
          8.000000000000e+000 2.500000000000e+000 0.000000000000e+000
          8.000000000000e+000 5.000000000000e+000 0.000000000000e+000
          8.000000000000e+000 7.500000000000e+000 0.000000000000e+000
          8.000000000000e+000 1.000000000000e+001 0.000000000000e+000
          8.000000000000e+000 1.250000000000e+001 0.000000000000e+000
          8.000000000000e+000 1.500000000000e+001 0.000000000000e+000
          8.000000000000e+000 1.750000000000e+001 0.000000000000e+000
          8.000000000000e+000 2.000000000000e+001 0.000000000000e+000
          1.000000000000e+001 0.000000000000e+000 0.000000000000e+000
          1.000000000000e+001 2.500000000000e+000 0.000000000000e+000
          1.000000000000e+001 5.000000000000e+000 0.000000000000e+000
          1.000000000000e+001 7.500000000000e+000 0.000000000000e+000
          1.000000000000e+001 1.000000000000e+001 0.000000000000e+000
          1.000000000000e+001 1.250000000000e+001 0.000000000000e+000
          1.000000000000e+001 1.500000000000e+001 0.000000000000e+000
          1.000000000000e+001 1.750000000000e+001 0.000000000000e+000
          1.000000000000e+001 2.000000000000e+001 0.000000000000e+000
          1.200000000000e+001 0.000000000000e+000 0.000000000000e+000
          1.200000000000e+001 2.500000000000e+000 0.000000000000e+000
          1.200000000000e+001 5.000000000000e+000 0.000000000000e+000
          1.200000000000e+001 7.500000000000e+000 0.000000000000e+000
          1.200000000000e+001 1.000000000000e+001 0.000000000000e+000
          1.200000000000e+001 1.250000000000e+001 0.000000000000e+000
          1.200000000000e+001 1.500000000000e+001 0.000000000000e+000
          1.200000000000e+001 1.750000000000e+001 0.000000000000e+000
          1.200000000000e+001 2.000000000000e+001 0.000000000000e+000
          1.400000000000e+001 0.000000000000e+000 0.000000000000e+000
          1.400000000000e+001 2.500000000000e+000 0.000000000000e+000
          1.400000000000e+001 5.000000000000e+000 0.000000000000e+000
          1.400000000000e+001 7.500000000000e+000 0.000000000000e+000
          1.400000000000e+001 1.000000000000e+001 0.000000000000e+000
          1.400000000000e+001 1.250000000000e+001 0.000000000000e+000
          1.400000000000e+001 1.500000000000e+001 0.000000000000e+000
          1.400000000000e+001 1.750000000000e+001 0.000000000000e+000
          1.400000000000e+001 2.000000000000e+001 0.000000000000e+000
          1.600000000000e+001 0.000000000000e+000 0.000000000000e+000
          1.600000000000e+001 2.500000000000e+000 0.000000000000e+000
          1.600000000000e+001 5.000000000000e+000 0.000000000000e+000
          1.600000000000e+001 7.500000000000e+000 0.000000000000e+000
          1.600000000000e+001 1.000000000000e+001 0.000000000000e+000
          1.600000000000e+001 1.250000000000e+001 0.000000000000e+000
          1.600000000000e+001 1.500000000000e+001 0.000000000000e+000
          1.600000000000e+001 1.750000000000e+001 0.000000000000e+000
          1.600000000000e+001 2.000000000000e+001 0.000000000000e+000
          1.800000000000e+001 0.000000000000e+000 0.000000000000e+000
          1.800000000000e+001 2.500000000000e+000 0.000000000000e+000
          1.800000000000e+001 5.000000000000e+000 0.000000000000e+000
          1.800000000000e+001 7.500000000000e+000 0.000000000000e+000
          1.800000000000e+001 1.000000000000e+001 0.000000000000e+000
          1.800000000000e+001 1.250000000000e+001 0.000000000000e+000
          1.800000000000e+001 1.500000000000e+001 0.000000000000e+000
          1.800000000000e+001 1.750000000000e+001 0.000000000000e+000
          1.800000000000e+001 2.000000000000e+001 0.000000000000e+000
          2.000000000000e+001 0.000000000000e+000 0.000000000000e+000
          2.000000000000e+001 2.500000000000e+000 0.000000000000e+000
          2.000000000000e+001 5.000000000000e+000 0.000000000000e+000
          2.000000000000e+001 7.500000000000e+000 0.000000000000e+000
          2.000000000000e+001 1.000000000000e+001 0.000000000000e+000
          2.000000000000e+001 1.250000000000e+001 0.000000000000e+000
          2.000000000000e+001 1.500000000000e+001 0.000000000000e+000
          2.000000000000e+001 1.750000000000e+001 0.000000000000e+000
          2.000000000000e+001 2.000000000000e+001 0.000000000000e+000
          2.200000000000e+001 0.000000000000e+000 0.000000000000e+000
          2.200000000000e+001 2.500000000000e+000 0.000000000000e+000
          2.200000000000e+001 5.000000000000e+000 0.000000000000e+000
          2.200000000000e+001 7.500000000000e+000 0.000000000000e+000
          2.200000000000e+001 1.000000000000e+001 0.000000000000e+000
          2.200000000000e+001 1.250000000000e+001 0.000000000000e+000
          2.200000000000e+001 1.500000000000e+001 0.000000000000e+000
          2.200000000000e+001 1.750000000000e+001 0.000000000000e+000
          2.200000000000e+001 2.000000000000e+001 0.000000000000e+000
          2.400000000000e+001 0.000000000000e+000 0.000000000000e+000
          2.400000000000e+001 2.500000000000e+000 0.000000000000e+000
          2.400000000000e+001 5.000000000000e+000 0.000000000000e+000
          2.400000000000e+001 7.500000000000e+000 0.000000000000e+000
          2.400000000000e+001 1.000000000000e+001 0.000000000000e+000
          2.400000000000e+001 1.250000000000e+001 0.000000000000e+000
          2.400000000000e+001 1.500000000000e+001 0.000000000000e+000
          2.400000000000e+001 1.750000000000e+001 0.000000000000e+000
          2.400000000000e+001 2.000000000000e+001 0.000000000000e+000
          2.600000000000e+001 0.000000000000e+000 0.000000000000e+000
          2.600000000000e+001 2.500000000000e+000 0.000000000000e+000
          2.600000000000e+001 5.000000000000e+000 0.000000000000e+000
          2.600000000000e+001 7.500000000000e+000 0.000000000000e+000
          2.600000000000e+001 1.000000000000e+001 0.000000000000e+000
          2.600000000000e+001 1.250000000000e+001 0.000000000000e+000
          2.600000000000e+001 1.500000000000e+001 0.000000000000e+000
          2.600000000000e+001 1.750000000000e+001 0.000000000000e+000
          2.600000000000e+001 2.000000000000e+001 0.000000000000e+000
          2.800000000000e+001 0.000000000000e+000 0.000000000000e+000
          2.800000000000e+001 2.500000000000e+000 0.000000000000e+000
          2.800000000000e+001 5.000000000000e+000 0.000000000000e+000
          2.800000000000e+001 7.500000000000e+000 0.000000000000e+000
          2.800000000000e+001 1.000000000000e+001 0.000000000000e+000
          2.800000000000e+001 1.250000000000e+001 0.000000000000e+000
          2.800000000000e+001 1.500000000000e+001 0.000000000000e+000
          2.800000000000e+001 1.750000000000e+001 0.000000000000e+000
          2.800000000000e+001 2.000000000000e+001 0.000000000000e+000
          3.000000000000e+001 0.000000000000e+000 0.000000000000e+000
          3.000000000000e+001 2.500000000000e+000 0.000000000000e+000
          3.000000000000e+001 5.000000000000e+000 0.000000000000e+000
          3.000000000000e+001 7.500000000000e+000 0.000000000000e+000
[...]
      <PointData Scalars="LIQUID_PRESSURE">
        <DataArray type="Float64" Name="LIQUID_PRESSURE" format="ascii">
          1.007539106482e+006 1.007550029879e+006 1.007550029889e+006 1.007539106426e+006 1.007550029908e+006 1.007539106378e+006 1.007550029876e+006 1.007539106444e+006 1.007550029894e+006 1.007539106429e+006 1.007550029928e+006 1.007539106348e+006 1.007550029927e+006 1.007539106359e+006 1.007550029939e+006 1.007539106333e+006 1.007550029959e+006 1.007539106276e+006 1.007548669760e+006 1.007548669785e+006 1.007548669792e+006 1.007548669770e+006 1.007548669772e+006 1.007548669796e+006 1.007548669778e+006 1.007548669788e+006 1.007548669808e+006 1.007518237086e+006 1.007518237096e+006 1.007518237100e+006 1.007518237087e+006 1.007518237090e+006 1.007518237101e+006 1.007518237093e+006 1.007518237087e+006 1.007518237093e+006 1.007533557744e+006 1.007533557750e+006 1.007533557750e+006 1.007533557741e+006 1.007533557740e+006 1.007533557747e+006 1.007533557739e+006 1.007533557736e+006 1.007533557743e+006 1.007507859913e+006 1.007507859917e+006 1.007507859913e+006 1.007507859912e+006 1.007507859908e+006 1.007507859915e+006 1.007507859905e+006 1.007507859909e+006 1.007507859918e+006 1.007480830504e+006 1.007480830503e+006 1.007480830506e+006 1.007480830505e+006 1.007480830504e+006 1.007480830504e+006 1.007480830500e+006 1.007480830505e+006 1.007480830505e+006 1.007486202192e+006 1.007486202185e+006 1.007486202187e+006 1.007486202189e+006 1.007486202184e+006 1.007486202183e+006 1.007486202183e+006 1.007486202183e+006 1.007486202189e+006 1.007438134814e+006 1.007438134803e+006 1.007438134810e+006 1.007438134809e+006 1.007438134802e+006 1.007438134800e+006 1.007438134805e+006 1.007438134807e+006 1.007438134800e+006 1.007427634569e+006 1.007427634563e+006 1.007427634568e+006 1.007427634567e+006 1.007427634563e+006 1.007427634559e+006 1.007427634569e+006 1.007427634563e+006 1.007427634562e+006 1.007399066594e+006 1.007399066606e+006 1.007399066604e+006 1.007399066604e+006 1.007399066603e+006 1.007399066601e+006 1.007399066607e+006 1.007399066605e+006 1.007399066599e+006 1.007357941776e+006 1.007357941779e+006 1.007357941777e+006 1.007357941777e+006 1.007357941774e+006 1.007357941766e+006 1.007357941783e+006 1.007357941783e+006 1.007357941775e+006 1.007340006672e+006 1.007340006666e+006 1.007340006675e+006 1.007340006666e+006 1.007340006667e+006 1.007340006670e+006 1.007340006666e+006 1.007340006668e+006 1.007340006678e+006 1.007286345651e+006 1.007286345646e+006 1.007286345641e+006 1.007286345643e+006 1.007286345644e+006 1.007286345642e+006 1.007286345646e+006 1.007286345641e+006 1.007286345645e+006 1.007262158616e+006 1.007262158612e+006 1.007262158604e+006 1.007262158611e+006 1.007262158610e+006 1.007262158615e+006 1.007262158613e+006 1.007262158615e+006 1.007262158613e+006 1.007211589186e+006 1.007211589190e+006 1.007211589190e+006 1.007211589188e+006 1.007211589190e+006 1.007211589184e+006 1.007211589190e+006 1.007211589188e+006 1.007211589191e+006 1.007167465064e+006 1.007167465063e+006 1.007167465060e+006 1.007167465061e+006 1.007167465063e+006 1.007167465058e+006 1.007167465064e+006 1.007167465063e+006 1.007167465064e+006 1.007130227820e+006 1.007130227831e+006 1.007130227823e+006 1.007130227828e+006 1.007130227829e+006 1.007130227830e+006 1.007130227835e+006 1.007130227826e+006 1.007130227830e+006 1.007062753786e+006 1.007062753783e+006 1.007062753782e+006 1.007062753773e+006 1.007062753778e+006 1.007062753786e+006 1.007062753779e+006 1.007062753785e+006 1.007062753786e+006 1.007030036683e+006 1.007030036674e+006 1.007030036674e+006 1.007030036679e+006 1.007030036676e+006 1.007030036670e+006 1.007030036674e+006 1.007030036674e+006 1.007030036682e+006 1.006961467779e+006 1.006961467773e+006 1.006961467773e+006 1.006961467784e+006 1.006961467774e+006 1.006961467776e+006 1.006961467777e+006 1.006961467772e+006 1.006961467782e+006 1.006910776693e+006 1.006910776695e+006 1.006910776695e+006 1.006910776693e+006 1.006910776693e+006 1.006910776692e+006 1.006910776690e+006 1.006910776690e+006 1.006910776688e+006 1.006850660057e+006 1.006850660059e+006 1.006850660063e+006 1.006850660060e+006 1.006850660061e+006 1.006850660064e+006 1.006850660058e+006 1.006850660058e+006 1.006850660058e+006 1.006784920120e+006 1.006784920111e+006 1.006784920114e+006 1.006784920114e+006 1.006784920119e+006 1.006784920117e+006 1.006784920118e+006 1.006784920117e+006 1.006784920112e+006 1.006729383142e+006 1.006729383142e+006 1.006729383138e+006 1.006729383140e+006 1.006729383142e+006 1.006729383140e+006 1.006729383145e+006 1.006729383142e+006 1.006729383136e+006 1.006651121318e+006 1.006651121330e+006 1.006651121325e+006 1.006651121325e+006 1.006651121324e+006 1.006651121323e+006 1.006651121322e+006 1.006651121323e+006 1.006651121319e+006 1.006592470554e+006 1.006592470547e+006 1.006592470553e+006 1.006592470550e+006 1.006592470550e+006 1.006592470548e+006 1.006592470548e+006 1.006592470553e+006 1.006592470545e+006 1.006518184298e+006 1.006518184295e+006 1.006518184293e+006 1.006518184298e+006 1.006518184295e+006 1.006518184289e+006 1.006518184294e+006 1.006518184291e+006 1.006518184297e+006 1.006439259179e+006 1.006439259174e+006 1.006439259170e+006 1.006439259169e+006 1.006439259174e+006 1.006439259172e+006 1.006439259173e+006 1.006439259175e+006 1.006439259180e+006 1.006377068271e+006 1.006377068272e+006 1.006377068268e+006 1.006377068270e+006 1.006377068269e+006 1.006377068270e+006 1.006377068270e+006 1.006377068267e+006 1.006377068271e+006 1.006286275255e+006 1.006286275251e+006 1.006286275253e+006 1.006286275258e+006 1.006286275256e+006 1.006286275252e+006 1.006286275253e+006 1.006286275254e+006 1.006286275251e+006 1.006213753054e+006 1.006213753059e+006 1.006213753061e+006 1.006213753067e+006 1.006213753067e+006 1.006213753061e+006 1.006213753066e+006 1.006213753065e+006 1.006213753067e+006 1.006136440551e+006 1.006136440549e+006 1.006136440548e+006 1.006136440552e+006 1.006136440556e+006 1.006136440553e+006 1.006136440553e+006 1.006136440549e+006 1.006136440555e+006 1.006041292503e+006 1.006041292499e+006 1.006041292502e+006 1.006041292502e+006 1.006041292504e+006 1.006041292500e+006 1.006041292502e+006 1.006041292502e+006 1.006041292497e+006 1.005969529570e+006 1.005969529573e+006 1.005969529573e+006 1.005969529574e+006 1.005969529577e+006 1.005969529572e+006 1.005969529580e+006 1.005969529572e+006 1.005969529573e+006 1.005876061743e+006 1.005876061743e+006 1.005876061742e+006 1.005876061741e+006 1.005876061746e+006 1.005876061744e+006 1.005876061743e+006 1.005876061745e+006 1.005876061741e+006 1.005785636275e+006 1.005785636277e+006 1.005785636276e+006 1.005785636275e+006 1.005785636279e+006 1.005785636276e+006 1.005785636278e+006 1.005785636276e+006 1.005785636276e+006 1.005703144554e+006 1.005703144558e+006 1.005703144560e+006 1.005703144561e+006 1.005703144561e+006 1.005703144560e+006 1.005703144561e+006 1.005703144561e+006 1.005703144555e+006 1.005605028277e+006 1.005605028272e+006 1.005605028268e+006 1.005605028273e+006 1.005605028272e+006 1.005605028273e+006 1.005605028269e+006 1.005605028270e+006 1.005605028270e+006 1.005510671172e+006 1.005510671169e+006 1.005510671169e+006 1.005510671166e+006 1.005510671169e+006 1.005510671166e+006 1.005510671167e+006 1.005510671165e+006 1.005510671172e+006 1.005425286224e+006 1.005425286225e+006 1.005425286221e+006 1.005425286224e+006 1.005425286221e+006 1.005425286222e+006 1.005425286222e+006 1.005425286221e+006 1.005425286222e+006 1.005319187112e+006 1.005319187115e+006 1.005319187113e+006 1.005319187114e+006 1.005319187114e+006 1.005319187112e+006 1.005319187112e+006 1.005319187112e+006 1.005319187112e+006 1.005225686527e+006 1.005225686527e+006 1.005225686527e+006 1.005225686528e+006 1.005225686531e+006 1.005225686523e+006 1.005225686532e+006 1.005225686526e+006 1.005225686528e+006 1.005127763952e+006 1.005127763957e+006 1.005127763955e+006 1.005127763952e+006 1.005127763956e+006 1.005127763954e+006 1.005127763953e+006 1.005127763960e+006 1.005127763958e+006 1.005023483704e+006 1.005023483710e+006 1.005023483708e+006 1.005023483706e+006 1.005023483706e+006 1.005023483706e+006 1.005023483706e+006 1.005023483707e+006 1.005023483706e+006 1.004930540271e+006 1.004930540273e+006 1.004930540271e+006 1.004930540274e+006 1.004930540270e+006 1.004930540270e+006 1.004930540269e+006 1.004930540269e+006 1.004930540270e+006 1.004823475150e+006 1.004823475151e+006 1.004823475154e+006 1.004823475154e+006 1.004823475149e+006 1.004823475153e+006 1.004823475154e+006 1.004823475151e+006 1.004823475153e+006 1.004711894705e+006 1.004711894705e+006 1.004711894705e+006 1.004711894705e+006 1.004711894707e+006 1.004711894706e+006 1.004711894708e+006 1.004711894705e+006 1.004711894704e+006 1.004623010534e+006 1.004623010537e+006 1.004623010537e+006 1.004623010534e+006 1.004623010537e+006 1.004623010536e+006 1.004623010540e+006 1.004623010538e+006 1.004623010535e+006 1.004507815979e+006 1.004507815982e+006 1.004507815983e+006 1.004507815984e+006 1.004507815983e+006 1.004507815982e+006 1.004507815982e+006 1.004507815983e+006 1.004507815987e+006 1.004403983745e+006 1.004403983743e+006 1.004403983745e+006 1.004403983744e+006 1.004403983743e+006 1.004403983745e+006 1.004403983746e+006 1.004403983746e+006 1.004403983744e+006 1.004299653400e+006 1.004299653397e+006 1.004299653396e+006 1.004299653396e+006 1.004299653392e+006 1.004299653398e+006 1.004299653398e+006 1.004299653398e+006 1.004299653396e+006 1.004186858190e+006 1.004186858193e+006 1.004186858193e+006 1.004186858189e+006 1.004186858185e+006 1.004186858192e+006 1.004186858189e+006 1.004186858190e+006 1.004186858189e+006 1.004081063487e+006 1.004081063492e+006 1.004081063494e+006 1.004081063492e+006 1.004081063493e+006 1.004081063491e+006 1.004081063493e+006 1.004081063492e+006 1.004081063490e+006 1.003976284157e+006 1.003976284156e+006 1.003976284157e+006 1.003976284159e+006 1.003976284158e+006 1.003976284156e+006 1.003976284157e+006 1.003976284159e+006 1.003976284156e+006 1.003862622260e+006 1.003862622262e+006 1.003862622265e+006 1.003862622262e+006 1.003862622264e+006 1.003862622259e+006 1.003862622264e+006 1.003862622263e+006 1.003862622263e+006 1.003750749218e+006 1.003750749219e+006 1.003750749219e+006 1.003750749218e+006 1.003750749217e+006 1.003750749219e+006 1.003750749217e+006 1.003750749219e+006 1.003750749219e+006 1.003644053346e+006 1.003644053348e+006 1.003644053348e+006 1.003644053348e+006 1.003644053348e+006 1.003644053348e+006 1.003644053346e+006 1.003644053347e+006 1.003644053346e+006 1.003546941361e+006 1.003546941363e+006 1.003546941362e+006 1.003546941362e+006 1.003546941364e+006 1.003546941362e+006 1.003546941365e+006 1.003546941362e+006 1.003546941361e+006 1.003404774074e+006 1.003404774074e+006 1.003404774074e+006 1.003404774071e+006 1.003404774070e+006 1.003404774069e+006 1.003404774070e+006 1.003404774069e+006 1.003404774069e+006 1.003314123289e+006 1.003314123291e+006 1.003314123291e+006 1.003314123293e+006 1.003314123297e+006 1.003314123297e+006 1.003314123295e+006 1.003314123297e+006 1.003314123295e+006 1.003215445814e+006 1.003215445816e+006 1.003215445816e+006 1.003215445810e+006 1.003215445807e+006 1.003215445805e+006 1.003215445802e+006 1.003215445804e+006 1.003215445800e+006 1.003096739531e+006 1.003096739533e+006 1.003096739536e+006 1.003096739545e+006 1.003096739551e+006 1.003096739555e+006 1.003096739554e+006 1.003096739557e+006 1.003096739556e+006 1.002938480198e+006 1.002938480196e+006 1.002938480195e+006 1.002938480179e+006 1.002938480176e+006 1.002938480171e+006 1.002938480173e+006 1.002938480170e+006 1.002938480169e+006 1.002938997771e+006 1.002938997773e+006 1.002938997767e+006 1.002938997791e+006 1.002938997796e+006 1.002938997799e+006 1.002938997800e+006 1.002938997802e+006 1.002938997810e+006 1.002686682934e+006 1.002686682931e+006 1.002686682936e+006 1.002686682916e+006 1.002686682916e+006 1.002686682913e+006 1.002686682908e+006 1.002686682910e+006 1.002686682910e+006 1.002714619030e+006 1.002714619033e+006 1.002714619033e+006 1.002714619035e+006 1.002714619040e+006 1.002714619041e+006 1.002714619043e+006 1.002714619044e+006 1.002714619047e+006 1.002512720596e+006 1.002512720597e+006 1.002512720592e+006 1.002512720603e+006 1.002512720599e+006 1.002512720598e+006 1.002512720598e+006 1.002512720602e+006 1.002512720599e+006 1.002430855949e+006 1.002430855951e+006 1.002430855947e+006 1.002430855952e+006 1.002430855947e+006 1.002430855948e+006 1.002430855947e+006 1.002430855947e+006 1.002430855948e+006 1.002338699654e+006 1.002338699656e+006 1.002338699655e+006 1.002338699657e+006 1.002338699656e+006 1.002338699655e+006 1.002338699655e+006 1.002338699656e+006 1.002338699655e+006 1.002216238753e+006 1.002216238751e+006 1.002216238751e+006 1.002216238752e+006 1.002216238751e+006 1.002216238752e+006 1.002216238752e+006 1.002216238751e+006 1.002216238753e+006 1.002118251792e+006 1.002118251792e+006 1.002118251792e+006 1.002118251793e+006 1.002118251793e+006 1.002118251794e+006 1.002118251793e+006 1.002118251793e+006 1.002118251792e+006 1.002006503846e+006 1.002006503845e+006 1.002006503845e+006 1.002006503847e+006 1.002006503846e+006 1.002006503845e+006 1.002006503846e+006 1.002006503844e+006 1.002006503844e+006 1.001899374764e+006 1.001899374765e+006 1.001899374765e+006 1.001899374765e+006 1.001899374765e+006 1.001899374765e+006 1.001899374764e+006 1.001899374764e+006 1.001899374763e+006 1.001819755817e+006 1.001819755817e+006 1.001819755818e+006 1.001819755818e+006 1.001819755818e+006 1.001819755818e+006 1.001819755818e+006 1.001819755819e+006 1.001819755817e+006 1.001697190453e+006 1.001697190452e+006 1.001697190453e+006 1.001697190454e+006 1.001697190454e+006 1.001697190454e+006 1.001697190454e+006 1.001697190453e+006 1.001697190457e+006 1.001606612660e+006 1.001606612661e+006 1.001606612661e+006 1.001606612658e+006 1.001606612658e+006 1.001606612659e+006 1.001606612660e+006 1.001606612660e+006 1.001606612659e+006 1.001519531226e+006 1.001519531224e+006 1.001519531226e+006 1.001519531225e+006 1.001519531226e+006 1.001519531226e+006 1.001519531225e+006 1.001519531227e+006 1.001519531227e+006 1.001409982704e+006 1.001409982705e+006 1.001409982703e+006 1.001409982704e+006 1.001409982704e+006 1.001409982704e+006 1.001409982704e+006 1.001409982705e+006 1.001409982705e+006 1.001337708619e+006 1.001337708619e+006 1.001337708620e+006 1.001337708620e+006 1.001337708620e+006 1.001337708620e+006 1.001337708619e+006 1.001337708621e+006 1.001337708621e+006 1.001253562307e+006 1.001253562307e+006 1.001253562308e+006 1.001253562307e+006 1.001253562307e+006 1.001253562308e+006 1.001253562307e+006 1.001253562307e+006 1.001253562306e+006 1.001187905581e+006 1.001187905582e+006 1.001187905582e+006 1.001187905582e+006 1.001187905582e+006 1.001187905581e+006 1.001187905581e+006 1.001187905581e+006 1.001187905581e+006 1.001125382627e+006 1.001125382628e+006 1.001125382628e+006 1.001125382628e+006 1.001125382628e+006 1.001125382627e+006 1.001125382627e+006 1.001125382627e+006 1.001125382627e+006 1.001062859689e+006 1.001062859689e+006 1.001062859689e+006 1.001062859689e+006 1.001062859689e+006 1.001062859689e+006 1.001062859688e+006 1.001062859688e+006 1.001062859688e+006 1.001000337091e+006 1.001000337091e+006 1.001000337091e+006 1.001000337091e+006 1.001000337091e+006 1.001000337091e+006 1.001000337091e+006 1.001000337091e+006 1.001000337090e+006 1.000937814768e+006 1.000937814768e+006 1.000937814768e+006 1.000937814768e+006 1.000937814768e+006 1.000937814768e+006 1.000937814768e+006 1.000937814768e+006 1.000937814767e+006 1.000875292710e+006 1.000875292710e+006 1.000875292710e+006 1.000875292709e+006 1.000875292709e+006 1.000875292709e+006 1.000875292710e+006 1.000875292709e+006 1.000875292709e+006 1.000812770895e+006 1.000812770895e+006 1.000812770895e+006 1.000812770895e+006 1.000812770895e+006 1.000812770895e+006 1.000812770895e+006 1.000812770895e+006 1.000812770895e+006 1.000750249302e+006 1.000750249302e+006 1.000750249302e+006 1.000750249302e+006 1.000750249302e+006 1.000750249302e+006 1.000750249302e+006 1.000750249302e+006 1.000750249302e+006 1.000687727911e+006 1.000687727911e+006 1.000687727911e+006 1.000687727911e+006 1.000687727912e+006 1.000687727911e+006 1.000687727911e+006 1.000687727911e+006 1.000687727911e+006 1.000625206702e+006 1.000625206702e+006 1.000625206702e+006 1.000625206702e+006 1.000625206702e+006 1.000625206702e+006 1.000625206702e+006 1.000625206702e+006 1.000625206702e+006 1.000562685653e+006 1.000562685653e+006 1.000562685653e+006 1.000562685653e+006 1.000562685653e+006 1.000562685653e+006 1.000562685653e+006 1.000562685653e+006 1.000562685653e+006 1.000500164744e+006 1.000500164744e+006 1.000500164744e+006 1.000500164744e+006 1.000500164744e+006 1.000500164744e+006 1.000500164744e+006 1.000500164744e+006 1.000500164744e+006 1.000437643954e+006 1.000437643954e+006 1.000437643954e+006 1.000437643954e+006 1.000437643954e+006 1.000437643954e+006 1.000437643954e+006 1.000437643954e+006 1.000437643954e+006 1.000375123262e+006 1.000375123262e+006 1.000375123262e+006 1.000375123262e+006 1.000375123262e+006 1.000375123262e+006 1.000375123262e+006 1.000375123262e+006 1.000375123262e+006 1.000312602647e+006 1.000312602647e+006 1.000312602647e+006 1.000312602647e+006 1.000312602647e+006 1.000312602648e+006 1.000312602648e+006 1.000312602648e+006 1.000312602648e+006 1.000250082089e+006 1.000250082089e+006 1.000250082089e+006 1.000250082089e+006 1.000250082089e+006 1.000250082089e+006 1.000250082089e+006 1.000250082089e+006 1.000250082090e+006 1.000187561566e+006 1.000187561566e+006 1.000187561566e+006 1.000187561566e+006 1.000187561566e+006 1.000187561567e+006 1.000187561567e+006 1.000187561567e+006 1.000187561567e+006 1.000125041058e+006 1.000125041058e+006 1.000125041058e+006 1.000125041058e+006 1.000125041058e+006 1.000125041058e+006 1.000125041058e+006 1.000125041058e+006 1.000125041058e+006 1.000062520543e+006 1.000062520543e+006 1.000062520543e+006 1.000062520543e+006 1.000062520543e+006 1.000062520543e+006 1.000062520543e+006 1.000062520543e+006 1.000062520543e+006 1.000000000000e+006 1.000000000000e+006 1.000000000000e+006 1.000000000000e+006 1.000000000000e+006 1.000000000000e+006 1.000000000000e+006 1.000000000000e+006 1.000000000000e+006 
        </DataArray>
        <DataArray type="Float64" Name="MOLAR_FRACTION" format="ascii">