<?xml version="1.0"?>
<VTKFile type="UnstructuredGrid" version="0.1" byte_order="LittleEndian">
  <UnstructuredGrid>
    <Piece NumberOfPoints="909" NumberOfCells="800">
      <Points>
        <DataArray type="Float64" NumberOfComponents="3" format="ascii">
          0.000000000000e+000 0.000000000000e+000 0.000000000000e+000
          2.000000000000e+000 0.000000000000e+000 0.000000000000e+000
          2.000000000000e+000 2.500000000000e+000 0.000000000000e+000
          0.000000000000e+000 2.500000000000e+000 0.000000000000e+000
          2.000000000000e+000 5.000000000000e+000 0.000000000000e+000
          0.000000000000e+000 5.000000000000e+000 0.000000000000e+000
          2.000000000000e+000 7.500000000000e+000 0.000000000000e+000
          0.000000000000e+000 7.500000000000e+000 0.000000000000e+000
          2.000000000000e+000 1.000000000000e+001 0.000000000000e+000
          0.000000000000e+000 1.000000000000e+001 0.000000000000e+000
          2.000000000000e+000 1.250000000000e+001 0.000000000000e+000
          0.000000000000e+000 1.250000000000e+001 0.000000000000e+000
          2.000000000000e+000 1.500000000000e+001 0.000000000000e+000
          0.000000000000e+000 1.500000000000e+001 0.000000000000e+000
          2.000000000000e+000 1.750000000000e+001 0.000000000000e+000
          0.000000000000e+000 1.750000000000e+001 0.000000000000e+000
          2.000000000000e+000 2.000000000000e+001 0.000000000000e+000
          0.000000000000e+000 2.000000000000e+001 0.000000000000e+000
          4.000000000000e+000 0.000000000000e+000 0.000000000000e+000
          4.000000000000e+000 2.500000000000e+000 0.000000000000e+000
          4.000000000000e+000 5.000000000000e+000 0.000000000000e+000
          4.000000000000e+000 7.500000000000e+000 0.000000000000e+000
          4.000000000000e+000 1.000000000000e+001 0.000000000000e+000
          4.000000000000e+000 1.250000000000e+001 0.000000000000e+000
          4.000000000000e+000 1.500000000000e+001 0.000000000000e+000
          4.000000000000e+000 1.750000000000e+001 0.000000000000e+000
          4.000000000000e+000 2.000000000000e+001 0.000000000000e+000
          6.000000000000e+000 0.000000000000e+000 0.000000000000e+000
          6.000000000000e+000 2.500000000000e+000 0.000000000000e+000
          6.000000000000e+000 5.000000000000e+000 0.000000000000e+000
          6.000000000000e+000 7.500000000000e+000 0.000000000000e+000
          6.000000000000e+000 1.000000000000e+001 0.000000000000e+000
          6.000000000000e+000 1.250000000000e+001 0.000000000000e+000
          6.000000000000e+000 1.500000000000e+001 0.000000000000e+000
          6.000000000000e+000 1.750000000000e+001 0.000000000000e+000
          6.000000000000e+000 2.000000000000e+001 0.000000000000e+000
          8.000000000000e+000 0.000000000000e+000 0.000000000000e+000
          8.000000000000e+000 2.500000000000e+000 0.000000000000e+000
          8.000000000000e+000 5.000000000000e+000 0.000000000000e+000
          8.000000000000e+000 7.500000000000e+000 0.000000000000e+000
          8.000000000000e+000 1.000000000000e+001 0.000000000000e+000
          8.000000000000e+000 1.250000000000e+001 0.000000000000e+000
          8.000000000000e+000 1.500000000000e+001 0.000000000000e+000
          8.000000000000e+000 1.750000000000e+001 0.000000000000e+000
          8.000000000000e+000 2.000000000000e+001 0.000000000000e+000
          1.000000000000e+001 0.000000000000e+000 0.000000000000e+000
          1.000000000000e+001 2.500000000000e+000 0.000000000000e+000
          1.000000000000e+001 5.000000000000e+000 0.000000000000e+000
          1.000000000000e+001 7.500000000000e+000 0.000000000000e+000
          1.000000000000e+001 1.000000000000e+001 0.000000000000e+000
          1.000000000000e+001 1.250000000000e+001 0.000000000000e+000
          1.000000000000e+001 1.500000000000e+001 0.000000000000e+000
          1.000000000000e+001 1.750000000000e+001 0.000000000000e+000
          1.000000000000e+001 2.000000000000e+001 0.000000000000e+000
          1.200000000000e+001 0.000000000000e+000 0.000000000000e+000
          1.200000000000e+001 2.500000000000e+000 0.000000000000e+000
          1.200000000000e+001 5.000000000000e+000 0.000000000000e+000
          1.200000000000e+001 7.500000000000e+000 0.000000000000e+000
          1.200000000000e+001 1.000000000000e+001 0.000000000000e+000
          1.200000000000e+001 1.250000000000e+001 0.000000000000e+000
          1.200000000000e+001 1.500000000000e+001 0.000000000000e+000
          1.200000000000e+001 1.750000000000e+001 0.000000000000e+000
          1.200000000000e+001 2.000000000000e+001 0.000000000000e+000
          1.400000000000e+001 0.000000000000e+000 0.000000000000e+000
          1.400000000000e+001 2.500000000000e+000 0.000000000000e+000
          1.400000000000e+001 5.000000000000e+000 0.000000000000e+000
          1.400000000000e+001 7.500000000000e+000 0.000000000000e+000
          1.400000000000e+001 1.000000000000e+001 0.000000000000e+000
          1.400000000000e+001 1.250000000000e+001 0.000000000000e+000
          1.400000000000e+001 1.500000000000e+001 0.000000000000e+000
          1.400000000000e+001 1.750000000000e+001 0.000000000000e+000
          1.400000000000e+001 2.000000000000e+001 0.000000000000e+000
          1.600000000000e+001 0.000000000000e+000 0.000000000000e+000
          1.600000000000e+001 2.500000000000e+000 0.000000000000e+000
          1.600000000000e+001 5.000000000000e+000 0.000000000000e+000
          1.600000000000e+001 7.500000000000e+000 0.000000000000e+000
          1.600000000000e+001 1.000000000000e+001 0.000000000000e+000
          1.600000000000e+001 1.250000000000e+001 0.000000000000e+000
          1.600000000000e+001 1.500000000000e+001 0.000000000000e+000
          1.600000000000e+001 1.750000000000e+001 0.000000000000e+000
          1.600000000000e+001 2.000000000000e+001 0.000000000000e+000
          1.800000000000e+001 0.000000000000e+000 0.000000000000e+000
          1.800000000000e+001 2.500000000000e+000 0.000000000000e+000
          1.800000000000e+001 5.000000000000e+000 0.000000000000e+000
          1.800000000000e+001 7.500000000000e+000 0.000000000000e+000
          1.800000000000e+001 1.000000000000e+001 0.000000000000e+000
          1.800000000000e+001 1.250000000000e+001 0.000000000000e+000
          1.800000000000e+001 1.500000000000e+001 0.000000000000e+000
          1.800000000000e+001 1.750000000000e+001 0.000000000000e+000
          1.800000000000e+001 2.000000000000e+001 0.000000000000e+000
          2.000000000000e+001 0.000000000000e+000 0.000000000000e+000
          2.000000000000e+001 2.500000000000e+000 0.000000000000e+000
          2.000000000000e+001 5.000000000000e+000 0.000000000000e+000
          2.000000000000e+001 7.500000000000e+000 0.000000000000e+000
          2.000000000000e+001 1.000000000000e+001 0.000000000000e+000
          2.000000000000e+001 1.250000000000e+001 0.000000000000e+000
          2.000000000000e+001 1.500000000000e+001 0.000000000000e+000
          2.000000000000e+001 1.750000000000e+001 0.000000000000e+000
          2.000000000000e+001 2.000000000000e+001 0.000000000000e+000
          2.200000000000e+001 0.000000000000e+000 0.000000000000e+000
          2.200000000000e+001 2.500000000000e+000 0.000000000000e+000
          2.200000000000e+001 5.000000000000e+000 0.000000000000e+000
          2.200000000000e+001 7.500000000000e+000 0.000000000000e+000
          2.200000000000e+001 1.000000000000e+001 0.000000000000e+000
          2.200000000000e+001 1.250000000000e+001 0.000000000000e+000
          2.200000000000e+001 1.500000000000e+001 0.000000000000e+000
          2.200000000000e+001 1.750000000000e+001 0.000000000000e+000
          2.200000000000e+001 2.000000000000e+001 0.000000000000e+000
          2.400000000000e+001 0.000000000000e+000 0.000000000000e+000
          2.400000000000e+001 2.500000000000e+000 0.000000000000e+000
          2.400000000000e+001 5.000000000000e+000 0.000000000000e+000
          2.400000000000e+001 7.500000000000e+000 0.000000000000e+000
          2.400000000000e+001 1.000000000000e+001 0.000000000000e+000
          2.400000000000e+001 1.250000000000e+001 0.000000000000e+000
          2.400000000000e+001 1.500000000000e+001 0.000000000000e+000
          2.400000000000e+001 1.750000000000e+001 0.000000000000e+000
          2.400000000000e+001 2.000000000000e+001 0.000000000000e+000
          2.600000000000e+001 0.000000000000e+000 0.000000000000e+000
          2.600000000000e+001 2.500000000000e+000 0.000000000000e+000
          2.600000000000e+001 5.000000000000e+000 0.000000000000e+000
          2.600000000000e+001 7.500000000000e+000 0.000000000000e+000
          2.600000000000e+001 1.000000000000e+001 0.000000000000e+000
          2.600000000000e+001 1.250000000000e+001 0.000000000000e+000
          2.600000000000e+001 1.500000000000e+001 0.000000000000e+000
          2.600000000000e+001 1.750000000000e+001 0.000000000000e+000
          2.600000000000e+001 2.000000000000e+001 0.000000000000e+000
          2.800000000000e+001 0.000000000000e+000 0.000000000000e+000
          2.800000000000e+001 2.500000000000e+000 0.000000000000e+000
          2.800000000000e+001 5.000000000000e+000 0.000000000000e+000
          2.800000000000e+001 7.500000000000e+000 0.000000000000e+000
          2.800000000000e+001 1.000000000000e+001 0.000000000000e+000
          2.800000000000e+001 1.250000000000e+001 0.000000000000e+000
          2.800000000000e+001 1.500000000000e+001 0.000000000000e+000
          2.800000000000e+001 1.750000000000e+001 0.000000000000e+000
          2.800000000000e+001 2.000000000000e+001 0.000000000000e+000
          3.000000000000e+001 0.000000000000e+000 0.000000000000e+000
          3.000000000000e+001 2.500000000000e+000 0.000000000000e+000
          3.000000000000e+001 5.000000000000e+000 0.000000000000e+000
          3.000000000000e+001 7.500000000000e+000 0.000000000000e+000
[...]
      <PointData Scalars="LIQUID_PRESSURE">
        <DataArray type="Float64" Name="LIQUID_PRESSURE" format="ascii">
          1.045461790259e+006 1.045470978372e+006 1.045470978385e+006 1.045461790176e+006 1.045470978411e+006 1.045461790120e+006 1.045470978377e+006 1.045461790208e+006 1.045470978396e+006 1.045461790186e+006 1.045470978438e+006 1.045461790074e+006 1.045470978426e+006 1.045461790070e+006 1.045470978443e+006 1.045461790031e+006 1.045470978472e+006 1.045461789963e+006 1.045446162162e+006 1.045446162197e+006 1.045446162216e+006 1.045446162175e+006 1.045446162182e+006 1.045446162227e+006 1.045446162203e+006 1.045446162220e+006 1.045446162252e+006 1.045378221075e+006 1.045378221098e+006 1.045378221110e+006 1.045378221082e+006 1.045378221089e+006 1.045378221108e+006 1.045378221089e+006 1.045378221091e+006 1.045378221105e+006 1.045351339186e+006 1.045351339197e+006 1.045351339209e+006 1.045351339187e+006 1.045351339187e+006 1.045351339197e+006 1.045351339184e+006 1.045351339179e+006 1.045351339189e+006 1.045257915372e+006 1.045257915382e+006 1.045257915385e+006 1.045257915379e+006 1.045257915372e+006 1.045257915386e+006 1.045257915376e+006 1.045257915372e+006 1.045257915379e+006 1.045154672009e+006 1.045154672014e+006 1.045154672018e+006 1.045154672012e+006 1.045154672013e+006 1.045154672016e+006 1.045154672014e+006 1.045154672014e+006 1.045154672015e+006 1.045073769251e+006 1.045073769253e+006 1.045073769256e+006 1.045073769251e+006 1.045073769255e+006 1.045073769253e+006 1.045073769254e+006 1.045073769253e+006 1.045073769254e+006 1.044917358242e+006 1.044917358240e+006 1.044917358242e+006 1.044917358239e+006 1.044917358241e+006 1.044917358242e+006 1.044917358242e+006 1.044917358245e+006 1.044917358240e+006 1.044793748186e+006 1.044793748185e+006 1.044793748186e+006 1.044793748186e+006 1.044793748185e+006 1.044793748185e+006 1.044793748185e+006 1.044793748185e+006 1.044793748186e+006 1.044633675490e+006 1.044633675493e+006 1.044633675493e+006 1.044633675492e+006 1.044633675493e+006 1.044633675492e+006 1.044633675492e+006 1.044633675492e+006 1.044633675492e+006 1.044447418167e+006 1.044447418170e+006 1.044447418167e+006 1.044447418169e+006 1.044447418166e+006 1.044447418167e+006 1.044447418171e+006 1.044447418168e+006 1.044447418170e+006 1.044273256672e+006 1.044273256671e+006 1.044273256672e+006 1.044273256671e+006 1.044273256670e+006 1.044273256673e+006 1.044273256670e+006 1.044273256671e+006 1.044273256671e+006 1.044046786432e+006 1.044046786431e+006 1.044046786433e+006 1.044046786433e+006 1.044046786434e+006 1.044046786433e+006 1.044046786432e+006 1.044046786432e+006 1.044046786432e+006 1.043842066023e+006 1.043842066026e+006 1.043842066023e+006 1.043842066025e+006 1.043842066024e+006 1.043842066024e+006 1.043842066025e+006 1.043842066025e+006 1.043842066024e+006 1.043593231841e+006 1.043593231840e+006 1.043593231842e+006 1.043593231840e+006 1.043593231842e+006 1.043593231840e+006 1.043593231841e+006 1.043593231840e+006 1.043593231841e+006 1.043341626259e+006 1.043341626257e+006 1.043341626257e+006 1.043341626258e+006 1.043341626255e+006 1.043341626259e+006 1.043341626257e+006 1.043341626258e+006 1.043341626256e+006 1.043081651798e+006 1.043081651799e+006 1.043081651798e+006 1.043081651800e+006 1.043081651799e+006 1.043081651798e+006 1.043081651799e+006 1.043081651800e+006 1.043081651799e+006 1.042777115344e+006 1.042777115344e+006 1.042777115344e+006 1.042777115344e+006 1.042777115345e+006 1.042777115345e+006 1.042777115344e+006 1.042777115344e+006 1.042777115345e+006 1.042500772976e+006 1.042500772976e+006 1.042500772975e+006 1.042500772976e+006 1.042500772976e+006 1.042500772976e+006 1.042500772976e+006 1.042500772975e+006 1.042500772977e+006 1.042169917708e+006 1.042169917707e+006 1.042169917708e+006 1.042169917707e+006 1.042169917707e+006 1.042169917708e+006 1.042169917707e+006 1.042169917707e+006 1.042169917707e+006 1.041848705130e+006 1.041848705130e+006 1.041848705130e+006 1.041848705129e+006 1.041848705130e+006 1.041848705129e+006 1.041848705129e+006 1.041848705130e+006 1.041848705128e+006 1.041504723981e+006 1.041504723979e+006 1.041504723980e+006 1.041504723981e+006 1.041504723980e+006 1.041504723981e+006 1.041504723981e+006 1.041504723980e+006 1.041504723981e+006 1.041144236592e+006 1.041144236593e+006 1.041144236592e+006 1.041144236592e+006 1.041144236592e+006 1.041144236592e+006 1.041144236592e+006 1.041144236592e+006 1.041144236592e+006 1.040781713630e+006 1.040781713630e+006 1.040781713630e+006 1.040781713629e+006 1.040781713630e+006 1.040781713629e+006 1.040781713630e+006 1.040781713630e+006 1.040781713630e+006 1.040382210307e+006 1.040382210308e+006 1.040382210308e+006 1.040382210308e+006 1.040382210308e+006 1.040382210308e+006 1.040382210308e+006 1.040382210308e+006 1.040382210307e+006 1.039995910804e+006 1.039995910803e+006 1.039995910804e+006 1.039995910804e+006 1.039995910804e+006 1.039995910804e+006 1.039995910803e+006 1.039995910804e+006 1.039995910803e+006 1.039577991737e+006 1.039577991738e+006 1.039577991738e+006 1.039577991738e+006 1.039577991738e+006 1.039577991738e+006 1.039577991738e+006 1.039577991738e+006 1.039577991738e+006 1.039147281869e+006 1.039147281870e+006 1.039147281869e+006 1.039147281869e+006 1.039147281869e+006 1.039147281869e+006 1.039147281869e+006 1.039147281868e+006 1.039147281869e+006 1.038724105938e+006 1.038724105938e+006 1.038724105938e+006 1.038724105938e+006 1.038724105938e+006 1.038724105938e+006 1.038724105938e+006 1.038724105938e+006 1.038724105938e+006 1.038255710841e+006 1.038255710841e+006 1.038255710841e+006 1.038255710841e+006 1.038255710841e+006 1.038255710841e+006 1.038255710841e+006 1.038255710841e+006 1.038255710841e+006 1.037801913834e+006 1.037801913834e+006 1.037801913834e+006 1.037801913834e+006 1.037801913834e+006 1.037801913834e+006 1.037801913835e+006 1.037801913834e+006 1.037801913835e+006 1.037329120575e+006 1.037329120575e+006 1.037329120575e+006 1.037329120575e+006 1.037329120575e+006 1.037329120575e+006 1.037329120575e+006 1.037329120575e+006 1.037329120574e+006 1.036827230944e+006 1.036827230944e+006 1.036827230944e+006 1.036827230944e+006 1.036827230944e+006 1.036827230944e+006 1.036827230944e+006 1.036827230944e+006 1.036827230944e+006 1.036344861975e+006 1.036344861976e+006 1.036344861976e+006 1.036344861975e+006 1.036344861975e+006 1.036344861976e+006 1.036344861976e+006 1.036344861975e+006 1.036344861976e+006 1.035824620905e+006 1.035824620905e+006 1.035824620905e+006 1.035824620905e+006 1.035824620905e+006 1.035824620905e+006 1.035824620905e+006 1.035824620905e+006 1.035824620905e+006 1.035300917934e+006 1.035300917934e+006 1.035300917934e+006 1.035300917934e+006 1.035300917934e+006 1.035300917934e+006 1.035300917934e+006 1.035300917934e+006 1.035300917934e+006 1.034777833398e+006 1.034777833398e+006 1.034777833399e+006 1.034777833398e+006 1.034777833399e+006 1.034777833399e+006 1.034777833399e+006 1.034777833398e+006 1.034777833399e+006 1.034225591716e+006 1.034225591715e+006 1.034225591715e+006 1.034225591715e+006 1.034225591715e+006 1.034225591715e+006 1.034225591715e+006 1.034225591715e+006 1.034225591715e+006 1.033673329063e+006 1.033673329063e+006 1.033673329063e+006 1.033673329063e+006 1.033673329063e+006 1.033673329063e+006 1.033673329063e+006 1.033673329063e+006 1.033673329063e+006 1.033122010851e+006 1.033122010851e+006 1.033122010851e+006 1.033122010851e+006 1.033122010851e+006 1.033122010851e+006 1.033122010851e+006 1.033122010851e+006 1.033122010851e+006 1.032534105151e+006 1.032534105151e+006 1.032534105151e+006 1.032534105151e+006 1.032534105151e+006 1.032534105151e+006 1.032534105151e+006 1.032534105151e+006 1.032534105151e+006 1.031956833172e+006 1.031956833172e+006 1.031956833172e+006 1.031956833172e+006 1.031956833172e+006 1.031956833172e+006 1.031956833172e+006 1.031956833172e+006 1.031956833172e+006 1.031368502443e+006 1.031368502443e+006 1.031368502443e+006 1.031368502443e+006 1.031368502443e+006 1.031368502443e+006 1.031368502443e+006 1.031368502443e+006 1.031368502443e+006 1.030767289017e+006 1.030767289017e+006 1.030767289017e+006 1.030767289017e+006 1.030767289017e+006 1.030767289017e+006 1.030767289017e+006 1.030767289017e+006 1.030767289017e+006 1.030169090497e+006 1.030169090497e+006 1.030169090498e+006 1.030169090497e+006 1.030169090498e+006 1.030169090497e+006 1.030169090497e+006 1.030169090498e+006 1.030169090497e+006 1.029540599170e+006 1.029540599170e+006 1.029540599170e+006 1.029540599170e+006 1.029540599170e+006 1.029540599170e+006 1.029540599170e+006 1.029540599170e+006 1.029540599170e+006 1.028908476960e+006 1.028908476960e+006 1.028908476960e+006 1.028908476960e+006 1.028908476960e+006 1.028908476960e+006 1.028908476960e+006 1.028908476960e+006 1.028908476960e+006 1.028304100967e+006 1.028304100967e+006 1.028304100967e+006 1.028304100967e+006 1.028304100967e+006 1.028304100967e+006 1.028304100967e+006 1.028304100967e+006 1.028304100967e+006 1.027656424560e+006 1.027656424560e+006 1.027656424560e+006 1.027656424560e+006 1.027656424560e+006 1.027656424560e+006 1.027656424560e+006 1.027656424560e+006 1.027656424560e+006 1.027012906595e+006 1.027012906595e+006 1.027012906595e+006 1.027012906594e+006 1.027012906594e+006 1.027012906594e+006 1.027012906594e+006 1.027012906595e+006 1.027012906594e+006 1.026362443986e+006 1.026362443985e+006 1.026362443986e+006 1.026362443986e+006 1.026362443986e+006 1.026362443986e+006 1.026362443986e+006 1.026362443986e+006 1.026362443985e+006 1.025697841379e+006 1.025697841379e+006 1.025697841379e+006 1.025697841378e+006 1.025697841379e+006 1.025697841378e+006 1.025697841378e+006 1.025697841379e+006 1.025697841379e+006 1.025045511269e+006 1.025045511270e+006 1.025045511269e+006 1.025045511269e+006 1.025045511270e+006 1.025045511270e+006 1.025045511270e+006 1.025045511270e+006 1.025045511269e+006 1.024388887722e+006 1.024388887721e+006 1.024388887721e+006 1.024388887721e+006 1.024388887721e+006 1.024388887721e+006 1.024388887721e+006 1.024388887722e+006 1.024388887722e+006 1.023714533766e+006 1.023714533766e+006 1.023714533766e+006 1.023714533766e+006 1.023714533766e+006 1.023714533766e+006 1.023714533766e+006 1.023714533766e+006 1.023714533766e+006 1.023035789847e+006 1.023035789847e+006 1.023035789847e+006 1.023035789847e+006 1.023035789847e+006 1.023035789847e+006 1.023035789847e+006 1.023035789847e+006 1.023035789847e+006 1.022370327728e+006 1.022370327729e+006 1.022370327728e+006 1.022370327729e+006 1.022370327729e+006 1.022370327729e+006 1.022370327729e+006 1.022370327729e+006 1.022370327729e+006 1.021692738356e+006 1.021692738356e+006 1.021692738357e+006 1.021692738356e+006 1.021692738355e+006 1.021692738355e+006 1.021692738356e+006 1.021692738356e+006 1.021692738355e+006 1.020963374426e+006 1.020963374426e+006 1.020963374425e+006 1.020963374426e+006 1.020963374426e+006 1.020963374426e+006 1.020963374426e+006 1.020963374426e+006 1.020963374426e+006 1.020320917381e+006 1.020320917381e+006 1.020320917382e+006 1.020320917382e+006 1.020320917383e+006 1.020320917383e+006 1.020320917383e+006 1.020320917383e+006 1.020320917383e+006 1.019669149602e+006 1.019669149602e+006 1.019669149601e+006 1.019669149597e+006 1.019669149595e+006 1.019669149593e+006 1.019669149592e+006 1.019669149592e+006 1.019669149592e+006 1.018943510452e+006 1.018943510452e+006 1.018943510454e+006 1.018943510463e+006 1.018943510469e+006 1.018943510472e+006 1.018943510473e+006 1.018943510475e+006 1.018943510474e+006 1.018192874366e+006 1.018192874366e+006 1.018192874364e+006 1.018192874348e+006 1.018192874339e+006 1.018192874335e+006 1.018192874332e+006 1.018192874331e+006 1.018192874330e+006 1.017657241876e+006 1.017657241877e+006 1.017657241876e+006 1.017657241901e+006 1.017657241909e+006 1.017657241914e+006 1.017657241918e+006 1.017657241920e+006 1.017657241920e+006 1.016792761851e+006 1.016792761849e+006 1.016792761852e+006 1.016792761828e+006 1.016792761824e+006 1.016792761819e+006 1.016792761816e+006 1.016792761814e+006 1.016792761813e+006 1.016289752087e+006 1.016289752090e+006 1.016289752086e+006 1.016289752095e+006 1.016289752093e+006 1.016289752096e+006 1.016289752097e+006 1.016289752098e+006 1.016289752097e+006 1.015479424240e+006 1.015479424243e+006 1.015479424237e+006 1.015479424250e+006 1.015479424248e+006 1.015479424250e+006 1.015479424250e+006 1.015479424250e+006 1.015479424251e+006 1.014811071962e+006 1.014811071963e+006 1.014811071958e+006 1.014811071964e+006 1.014811071959e+006 1.014811071960e+006 1.014811071960e+006 1.014811071959e+006 1.014811071960e+006 1.014177969814e+006 1.014177969814e+006 1.014177969811e+006 1.014177969814e+006 1.014177969811e+006 1.014177969810e+006 1.014177969810e+006 1.014177969810e+006 1.014177969810e+006 1.013500603199e+006 1.013500603198e+006 1.013500603198e+006 1.013500603198e+006 1.013500603197e+006 1.013500603196e+006 1.013500603197e+006 1.013500603197e+006 1.013500603196e+006 1.012841939328e+006 1.012841939328e+006 1.012841939328e+006 1.012841939328e+006 1.012841939328e+006 1.012841939328e+006 1.012841939329e+006 1.012841939329e+006 1.012841939328e+006 1.012162300192e+006 1.012162300192e+006 1.012162300191e+006 1.012162300192e+006 1.012162300192e+006 1.012162300191e+006 1.012162300193e+006 1.012162300192e+006 1.012162300192e+006 1.011503497772e+006 1.011503497772e+006 1.011503497773e+006 1.011503497773e+006 1.011503497773e+006 1.011503497773e+006 1.011503497773e+006 1.011503497773e+006 1.011503497773e+006 1.010902462800e+006 1.010902462800e+006 1.010902462801e+006 1.010902462801e+006 1.010902462801e+006 1.010902462800e+006 1.010902462801e+006 1.010902462801e+006 1.010902462801e+006 1.010254761447e+006 1.010254761445e+006 1.010254761445e+006 1.010254761445e+006 1.010254761446e+006 1.010254761446e+006 1.010254761445e+006 1.010254761445e+006 1.010254761446e+006 1.009655893146e+006 1.009655893146e+006 1.009655893146e+006 1.009655893146e+006 1.009655893145e+006 1.009655893146e+006 1.009655893146e+006 1.009655893146e+006 1.009655893145e+006 1.009078814611e+006 1.009078814611e+006 1.009078814611e+006 1.009078814611e+006 1.009078814610e+006 1.009078814611e+006 1.009078814611e+006 1.009078814611e+006 1.009078814610e+006 1.008497857156e+006 1.008497857156e+006 1.008497857156e+006 1.008497857156e+006 1.008497857156e+006 1.008497857156e+006 1.008497857155e+006 1.008497857155e+006 1.008497857156e+006 1.008015993522e+006 1.008015993522e+006 1.008015993522e+006 1.008015993522e+006 1.008015993522e+006 1.008015993522e+006 1.008015993522e+006 1.008015993522e+006 1.008015993522e+006 1.007610205170e+006 1.007610205170e+006 1.007610205171e+006 1.007610205171e+006 1.007610205171e+006 1.007610205171e+006 1.007610205170e+006 1.007610205171e+006 1.007610205170e+006 1.007229673246e+006 1.007229673246e+006 1.007229673246e+006 1.007229673246e+006 1.007229673246e+006 1.007229673246e+006 1.007229673246e+006 1.007229673246e+006 1.007229673246e+006 1.006849144541e+006 1.006849144542e+006 1.006849144542e+006 1.006849144542e+006 1.006849144542e+006 1.006849144542e+006 1.006849144541e+006 1.006849144541e+006 1.006849144541e+006 1.006468618950e+006 1.006468618950e+006 1.006468618950e+006 1.006468618950e+006 1.006468618950e+006 1.006468618950e+006 1.006468618949e+006 1.006468618949e+006 1.006468618949e+006 1.006088096445e+006 1.006088096445e+006 1.006088096446e+006 1.006088096445e+006 1.006088096445e+006 1.006088096445e+006 1.006088096445e+006 1.006088096445e+006 1.006088096445e+006 1.005707576876e+006 1.005707576876e+006 1.005707576875e+006 1.005707576875e+006 1.005707576875e+006 1.005707576875e+006 1.005707576875e+006 1.005707576875e+006 1.005707576875e+006 1.005327060043e+006 1.005327060043e+006 1.005327060043e+006 1.005327060043e+006 1.005327060043e+006 1.005327060042e+006 1.005327060042e+006 1.005327060043e+006 1.005327060043e+006 1.004946545746e+006 1.004946545746e+006 1.004946545746e+006 1.004946545746e+006 1.004946545746e+006 1.004946545746e+006 1.004946545746e+006 1.004946545746e+006 1.004946545746e+006 1.004566033787e+006 1.004566033787e+006 1.004566033787e+006 1.004566033787e+006 1.004566033787e+006 1.004566033787e+006 1.004566033787e+006 1.004566033787e+006 1.004566033787e+006 1.004185523969e+006 1.004185523969e+006 1.004185523969e+006 1.004185523969e+006 1.004185523969e+006 1.004185523969e+006 1.004185523969e+006 1.004185523969e+006 1.004185523969e+006 1.003805016093e+006 1.003805016093e+006 1.003805016093e+006 1.003805016093e+006 1.003805016093e+006 1.003805016093e+006 1.003805016093e+006 1.003805016093e+006 1.003805016093e+006 1.003424509961e+006 1.003424509961e+006 1.003424509961e+006 1.003424509961e+006 1.003424509961e+006 1.003424509961e+006 1.003424509961e+006 1.003424509960e+006 1.003424509961e+006 1.003044005372e+006 1.003044005372e+006 1.003044005372e+006 1.003044005372e+006 1.003044005372e+006 1.003044005372e+006 1.003044005372e+006 1.003044005372e+006 1.003044005372e+006 1.002663502126e+006 1.002663502126e+006 1.002663502126e+006 1.002663502126e+006 1.002663502126e+006 1.002663502126e+006 1.002663502126e+006 1.002663502126e+006 1.002663502126e+006 1.002283000021e+006 1.002283000021e+006 1.002283000021e+006 1.002283000021e+006 1.002283000021e+006 1.002283000021e+006 1.002283000021e+006 1.002283000021e+006 1.002283000021e+006 1.001902498855e+006 1.001902498855e+006 1.001902498855e+006 1.001902498855e+006 1.001902498855e+006 1.001902498855e+006 1.001902498855e+006 1.001902498856e+006 1.001902498855e+006 1.001521998426e+006 1.001521998426e+006 1.001521998426e+006 1.001521998426e+006 1.001521998426e+006 1.001521998426e+006 1.001521998426e+006 1.001521998426e+006 1.001521998426e+006 1.001141498530e+006 1.001141498530e+006 1.001141498530e+006 1.001141498530e+006 1.001141498530e+006 1.001141498530e+006 1.001141498530e+006 1.001141498530e+006 1.001141498530e+006 1.000760998963e+006 1.000760998963e+006 1.000760998963e+006 1.000760998963e+006 1.000760998963e+006 1.000760998963e+006 1.000760998963e+006 1.000760998963e+006 1.000760998963e+006 1.000380499521e+006 1.000380499521e+006 1.000380499521e+006 1.000380499521e+006 1.000380499521e+006 1.000380499521e+006 1.000380499521e+006 1.000380499521e+006 1.000380499521e+006 1.000000000000e+006 1.000000000000e+006 1.000000000000e+006 1.000000000000e+006 1.000000000000e+006 1.000000000000e+006 1.000000000000e+006 1.000000000000e+006 1.000000000000e+006 
        </DataArray>
        <DataArray type="Float64" Name="MOLAR_FRACTION" format="ascii">