<?xml version="1.0"?>
<VTKFile type="UnstructuredGrid" version="0.1" byte_order="LittleEndian">
  <UnstructuredGrid>
    <Piece NumberOfPoints="909" NumberOfCells="800">
      <Points>
        <DataArray type="Float64" NumberOfComponents="3" format="ascii">
          0.000000000000e+000 0.000000000000e+000 0.000000000000e+000
          2.000000000000e+000 0.000000000000e+000 0.000000000000e+000
          2.000000000000e+000 2.500000000000e+000 0.000000000000e+000
          0.000000000000e+000 2.500000000000e+000 0.000000000000e+000
          2.000000000000e+000 5.000000000000e+000 0.000000000000e+000
          0.000000000000e+000 5.000000000000e+000 0.000000000000e+000
          2.000000000000e+000 7.500000000000e+000 0.000000000000e+000
          0.000000000000e+000 7.500000000000e+000 0.000000000000e+000
          2.000000000000e+000 1.000000000000e+001 0.000000000000e+000
          0.000000000000e+000 1.000000000000e+001 0.000000000000e+000
          2.000000000000e+000 1.250000000000e+001 0.000000000000e+000
          0.000000000000e+000 1.250000000000e+001 0.000000000000e+000
          2.000000000000e+000 1.500000000000e+001 0.000000000000e+000
          0.000000000000e+000 1.500000000000e+001 0.000000000000e+000
          2.000000000000e+000 1.750000000000e+001 0.000000000000e+000
          0.000000000000e+000 1.750000000000e+001 0.000000000000e+000
          2.000000000000e+000 2.000000000000e+001 0.000000000000e+000
          0.000000000000e+000 2.000000000000e+001 0.000000000000e+000
          4.000000000000e+000 0.000000000000e+000 0.000000000000e+000
          4.000000000000e+000 2.500000000000e+000 0.000000000000e+000
          4.000000000000e+000 5.000000000000e+000 0.000000000000e+000
          4.000000000000e+000 7.500000000000e+000 0.000000000000e+000
          4.000000000000e+000 1.000000000000e+001 0.000000000000e+000
          4.000000000000e+000 1.250000000000e+001 0.000000000000e+000
          4.000000000000e+000 1.500000000000e+001 0.000000000000e+000
          4.000000000000e+000 1.750000000000e+001 0.000000000000e+000
          4.000000000000e+000 2.000000000000e+001 0.000000000000e+000
          6.000000000000e+000 0.000000000000e+000 0.000000000000e+000
          6.000000000000e+000 2.500000000000e+000 0.000000000000e+000
          6.000000000000e+000 5.000000000000e+000 0.000000000000e+000
          6.000000000000e+000 7.500000000000e+000 0.000000000000e+000
          6.000000000000e+000 1.000000000000e+001 0.000000000000e+000
          6.000000000000e+000 1.250000000000e+001 0.000000000000e+000
          6.000000000000e+000 1.500000000000e+001 0.000000000000e+000
          6.000000000000e+000 1.750000000000e+001 0.000000000000e+000
          6.000000000000e+000 2.000000000000e+001 0.000000000000e+000
          8.000000000000e+000 0.000000000000e+000 0.000000000000e+000
          8.000000000000e+000 2.500000000000e+000 0.000000000000e+000
          8.000000000000e+000 5.000000000000e+000 0.000000000000e+000
          8.000000000000e+000 7.500000000000e+000 0.000000000000e+000
          8.000000000000e+000 1.000000000000e+001 0.000000000000e+000
          8.000000000000e+000 1.250000000000e+001 0.000000000000e+000
          8.000000000000e+000 1.500000000000e+001 0.000000000000e+000
          8.000000000000e+000 1.750000000000e+001 0.000000000000e+000
          8.000000000000e+000 2.000000000000e+001 0.000000000000e+000
          1.000000000000e+001 0.000000000000e+000 0.000000000000e+000
          1.000000000000e+001 2.500000000000e+000 0.000000000000e+000
          1.000000000000e+001 5.000000000000e+000 0.000000000000e+000
          1.000000000000e+001 7.500000000000e+000 0.000000000000e+000
          1.000000000000e+001 1.000000000000e+001 0.000000000000e+000
          1.000000000000e+001 1.250000000000e+001 0.000000000000e+000
          1.000000000000e+001 1.500000000000e+001 0.000000000000e+000
          1.000000000000e+001 1.750000000000e+001 0.000000000000e+000
          1.000000000000e+001 2.000000000000e+001 0.000000000000e+000
          1.200000000000e+001 0.000000000000e+000 0.000000000000e+000
          1.200000000000e+001 2.500000000000e+000 0.000000000000e+000
          1.200000000000e+001 5.000000000000e+000 0.000000000000e+000
          1.200000000000e+001 7.500000000000e+000 0.000000000000e+000
          1.200000000000e+001 1.000000000000e+001 0.000000000000e+000
          1.200000000000e+001 1.250000000000e+001 0.000000000000e+000
          1.200000000000e+001 1.500000000000e+001 0.000000000000e+000
          1.200000000000e+001 1.750000000000e+001 0.000000000000e+000
          1.200000000000e+001 2.000000000000e+001 0.000000000000e+000
          1.400000000000e+001 0.000000000000e+000 0.000000000000e+000
          1.400000000000e+001 2.500000000000e+000 0.000000000000e+000
          1.400000000000e+001 5.000000000000e+000 0.000000000000e+000
          1.400000000000e+001 7.500000000000e+000 0.000000000000e+000
          1.400000000000e+001 1.000000000000e+001 0.000000000000e+000
          1.400000000000e+001 1.250000000000e+001 0.000000000000e+000
          1.400000000000e+001 1.500000000000e+001 0.000000000000e+000
          1.400000000000e+001 1.750000000000e+001 0.000000000000e+000
          1.400000000000e+001 2.000000000000e+001 0.000000000000e+000
          1.600000000000e+001 0.000000000000e+000 0.000000000000e+000
          1.600000000000e+001 2.500000000000e+000 0.000000000000e+000
          1.600000000000e+001 5.000000000000e+000 0.000000000000e+000
          1.600000000000e+001 7.500000000000e+000 0.000000000000e+000
          1.600000000000e+001 1.000000000000e+001 0.000000000000e+000
          1.600000000000e+001 1.250000000000e+001 0.000000000000e+000
          1.600000000000e+001 1.500000000000e+001 0.000000000000e+000
          1.600000000000e+001 1.750000000000e+001 0.000000000000e+000
          1.600000000000e+001 2.000000000000e+001 0.000000000000e+000
          1.800000000000e+001 0.000000000000e+000 0.000000000000e+000
          1.800000000000e+001 2.500000000000e+000 0.000000000000e+000
          1.800000000000e+001 5.000000000000e+000 0.000000000000e+000
          1.800000000000e+001 7.500000000000e+000 0.000000000000e+000
          1.800000000000e+001 1.000000000000e+001 0.000000000000e+000
          1.800000000000e+001 1.250000000000e+001 0.000000000000e+000
          1.800000000000e+001 1.500000000000e+001 0.000000000000e+000
          1.800000000000e+001 1.750000000000e+001 0.000000000000e+000
          1.800000000000e+001 2.000000000000e+001 0.000000000000e+000
          2.000000000000e+001 0.000000000000e+000 0.000000000000e+000
          2.000000000000e+001 2.500000000000e+000 0.000000000000e+000
          2.000000000000e+001 5.000000000000e+000 0.000000000000e+000
          2.000000000000e+001 7.500000000000e+000 0.000000000000e+000
          2.000000000000e+001 1.000000000000e+001 0.000000000000e+000
          2.000000000000e+001 1.250000000000e+001 0.000000000000e+000
          2.000000000000e+001 1.500000000000e+001 0.000000000000e+000
          2.000000000000e+001 1.750000000000e+001 0.000000000000e+000
          2.000000000000e+001 2.000000000000e+001 0.000000000000e+000
          2.200000000000e+001 0.000000000000e+000 0.000000000000e+000
          2.200000000000e+001 2.500000000000e+000 0.000000000000e+000
          2.200000000000e+001 5.000000000000e+000 0.000000000000e+000
          2.200000000000e+001 7.500000000000e+000 0.000000000000e+000
          2.200000000000e+001 1.000000000000e+001 0.000000000000e+000
          2.200000000000e+001 1.250000000000e+001 0.000000000000e+000
          2.200000000000e+001 1.500000000000e+001 0.000000000000e+000
          2.200000000000e+001 1.750000000000e+001 0.000000000000e+000
          2.200000000000e+001 2.000000000000e+001 0.000000000000e+000
          2.400000000000e+001 0.000000000000e+000 0.000000000000e+000
          2.400000000000e+001 2.500000000000e+000 0.000000000000e+000
          2.400000000000e+001 5.000000000000e+000 0.000000000000e+000
          2.400000000000e+001 7.500000000000e+000 0.000000000000e+000
          2.400000000000e+001 1.000000000000e+001 0.000000000000e+000
          2.400000000000e+001 1.250000000000e+001 0.000000000000e+000
          2.400000000000e+001 1.500000000000e+001 0.000000000000e+000
          2.400000000000e+001 1.750000000000e+001 0.000000000000e+000
          2.400000000000e+001 2.000000000000e+001 0.000000000000e+000
          2.600000000000e+001 0.000000000000e+000 0.000000000000e+000
          2.600000000000e+001 2.500000000000e+000 0.000000000000e+000
          2.600000000000e+001 5.000000000000e+000 0.000000000000e+000
          2.600000000000e+001 7.500000000000e+000 0.000000000000e+000
          2.600000000000e+001 1.000000000000e+001 0.000000000000e+000
          2.600000000000e+001 1.250000000000e+001 0.000000000000e+000
          2.600000000000e+001 1.500000000000e+001 0.000000000000e+000
          2.600000000000e+001 1.750000000000e+001 0.000000000000e+000
          2.600000000000e+001 2.000000000000e+001 0.000000000000e+000
          2.800000000000e+001 0.000000000000e+000 0.000000000000e+000
          2.800000000000e+001 2.500000000000e+000 0.000000000000e+000
          2.800000000000e+001 5.000000000000e+000 0.000000000000e+000
          2.800000000000e+001 7.500000000000e+000 0.000000000000e+000
          2.800000000000e+001 1.000000000000e+001 0.000000000000e+000
          2.800000000000e+001 1.250000000000e+001 0.000000000000e+000
          2.800000000000e+001 1.500000000000e+001 0.000000000000e+000
          2.800000000000e+001 1.750000000000e+001 0.000000000000e+000
          2.800000000000e+001 2.000000000000e+001 0.000000000000e+000
          3.000000000000e+001 0.000000000000e+000 0.000000000000e+000
          3.000000000000e+001 2.500000000000e+000 0.000000000000e+000
          3.000000000000e+001 5.000000000000e+000 0.000000000000e+000
          3.000000000000e+001 7.500000000000e+000 0.000000000000e+000
[...]
      <PointData Scalars="LIQUID_PRESSURE">
        <DataArray type="Float64" Name="LIQUID_PRESSURE" format="ascii">
          1.135181595555e+006 1.135187226924e+006 1.135187226942e+006 1.135181595447e+006 1.135187226971e+006 1.135181595374e+006 1.135187226929e+006 1.135181595480e+006 1.135187226954e+006 1.135181595452e+006 1.135187227000e+006 1.135181595299e+006 1.135187226975e+006 1.135181595263e+006 1.135187226989e+006 1.135181595196e+006 1.135187227024e+006 1.135181595110e+006 1.135123342229e+006 1.135123342283e+006 1.135123342315e+006 1.135123342256e+006 1.135123342270e+006 1.135123342341e+006 1.135123342318e+006 1.135123342346e+006 1.135123342393e+006 1.134996650039e+006 1.134996650079e+006 1.134996650101e+006 1.134996650057e+006 1.134996650068e+006 1.134996650106e+006 1.134996650087e+006 1.134996650097e+006 1.134996650120e+006 1.134898183911e+006 1.134898183933e+006 1.134898183953e+006 1.134898183918e+006 1.134898183916e+006 1.134898183936e+006 1.134898183921e+006 1.134898183916e+006 1.134898183930e+006 1.134696127052e+006 1.134696127068e+006 1.134696127076e+006 1.134696127061e+006 1.134696127050e+006 1.134696127069e+006 1.134696127056e+006 1.134696127050e+006 1.134696127059e+006 1.134470953461e+006 1.134470953470e+006 1.134470953477e+006 1.134470953466e+006 1.134470953464e+006 1.134470953469e+006 1.134470953465e+006 1.134470953463e+006 1.134470953464e+006 1.134246841441e+006 1.134246841444e+006 1.134246841449e+006 1.134246841440e+006 1.134246841444e+006 1.134246841442e+006 1.134246841442e+006 1.134246841440e+006 1.134246841441e+006 1.133918524780e+006 1.133918524779e+006 1.133918524781e+006 1.133918524777e+006 1.133918524778e+006 1.133918524780e+006 1.133918524780e+006 1.133918524783e+006 1.133918524777e+006 1.133607305705e+006 1.133607305704e+006 1.133607305705e+006 1.133607305703e+006 1.133607305703e+006 1.133607305702e+006 1.133607305703e+006 1.133607305702e+006 1.133607305704e+006 1.133229936299e+006 1.133229936303e+006 1.133229936302e+006 1.133229936300e+006 1.133229936301e+006 1.133229936301e+006 1.133229936301e+006 1.133229936301e+006 1.133229936302e+006 1.132803995389e+006 1.132803995392e+006 1.132803995391e+006 1.132803995391e+006 1.132803995389e+006 1.132803995389e+006 1.132803995395e+006 1.132803995391e+006 1.132803995395e+006 1.132366010400e+006 1.132366010399e+006 1.132366010400e+006 1.132366010400e+006 1.132366010399e+006 1.132366010402e+006 1.132366010399e+006 1.132366010400e+006 1.132366010400e+006 1.131855002170e+006 1.131855002169e+006 1.131855002172e+006 1.131855002172e+006 1.131855002174e+006 1.131855002172e+006 1.131855002171e+006 1.131855002170e+006 1.131855002170e+006 1.131346099429e+006 1.131346099432e+006 1.131346099429e+006 1.131346099432e+006 1.131346099431e+006 1.131346099432e+006 1.131346099432e+006 1.131346099432e+006 1.131346099430e+006 1.130766117985e+006 1.130766117984e+006 1.130766117986e+006 1.130766117984e+006 1.130766117986e+006 1.130766117984e+006 1.130766117985e+006 1.130766117984e+006 1.130766117984e+006 1.130164316026e+006 1.130164316023e+006 1.130164316023e+006 1.130164316023e+006 1.130164316021e+006 1.130164316025e+006 1.130164316023e+006 1.130164316023e+006 1.130164316022e+006 1.129520802831e+006 1.129520802832e+006 1.129520802831e+006 1.129520802832e+006 1.129520802831e+006 1.129520802831e+006 1.129520802832e+006 1.129520802833e+006 1.129520802831e+006 1.128813683922e+006 1.128813683922e+006 1.128813683921e+006 1.128813683921e+006 1.128813683922e+006 1.128813683923e+006 1.128813683922e+006 1.128813683921e+006 1.128813683923e+006 1.128111126176e+006 1.128111126176e+006 1.128111126175e+006 1.128111126175e+006 1.128111126175e+006 1.128111126175e+006 1.128111126175e+006 1.128111126174e+006 1.128111126176e+006 1.127329871380e+006 1.127329871378e+006 1.127329871380e+006 1.127329871379e+006 1.127329871379e+006 1.127329871380e+006 1.127329871379e+006 1.127329871379e+006 1.127329871378e+006 1.126535688535e+006 1.126535688535e+006 1.126535688536e+006 1.126535688534e+006 1.126535688534e+006 1.126535688534e+006 1.126535688534e+006 1.126535688535e+006 1.126535688533e+006 1.125694394706e+006 1.125694394705e+006 1.125694394706e+006 1.125694394707e+006 1.125694394706e+006 1.125694394706e+006 1.125694394706e+006 1.125694394706e+006 1.125694394707e+006 1.124815087173e+006 1.124815087173e+006 1.124815087173e+006 1.124815087173e+006 1.124815087172e+006 1.124815087173e+006 1.124815087173e+006 1.124815087173e+006 1.124815087173e+006 1.123901036730e+006 1.123901036729e+006 1.123901036730e+006 1.123901036728e+006 1.123901036730e+006 1.123901036728e+006 1.123901036730e+006 1.123901036729e+006 1.123901036729e+006 1.122928039172e+006 1.122928039172e+006 1.122928039172e+006 1.122928039173e+006 1.122928039172e+006 1.122928039172e+006 1.122928039172e+006 1.122928039172e+006 1.122928039171e+006 1.121944845494e+006 1.121944845494e+006 1.121944845494e+006 1.121944845494e+006 1.121944845495e+006 1.121944845494e+006 1.121944845494e+006 1.121944845495e+006 1.121944845494e+006 1.120900778993e+006 1.120900778994e+006 1.120900778994e+006 1.120900778994e+006 1.120900778994e+006 1.120900778994e+006 1.120900778994e+006 1.120900778994e+006 1.120900778994e+006 1.119829642601e+006 1.119829642603e+006 1.119829642601e+006 1.119829642601e+006 1.119829642601e+006 1.119829642601e+006 1.119829642602e+006 1.119829642601e+006 1.119829642601e+006 1.118732711390e+006 1.118732711390e+006 1.118732711390e+006 1.118732711390e+006 1.118732711390e+006 1.118732711390e+006 1.118732711390e+006 1.118732711390e+006 1.118732711390e+006 1.117565899689e+006 1.117565899689e+006 1.117565899689e+006 1.117565899688e+006 1.117565899689e+006 1.117565899689e+006 1.117565899689e+006 1.117565899689e+006 1.117565899689e+006 1.116392027391e+006 1.116392027391e+006 1.116392027391e+006 1.116392027391e+006 1.116392027391e+006 1.116392027391e+006 1.116392027391e+006 1.116392027391e+006 1.116392027391e+006 1.115161888631e+006 1.115161888632e+006 1.115161888631e+006 1.115161888631e+006 1.115161888631e+006 1.115161888631e+006 1.115161888631e+006 1.115161888631e+006 1.115161888631e+006 1.113885603041e+006 1.113885603041e+006 1.113885603041e+006 1.113885603041e+006 1.113885603041e+006 1.113885603041e+006 1.113885603041e+006 1.113885603041e+006 1.113885603041e+006 1.112599595664e+006 1.112599595664e+006 1.112599595664e+006 1.112599595664e+006 1.112599595664e+006 1.112599595664e+006 1.112599595664e+006 1.112599595664e+006 1.112599595664e+006 1.111246572891e+006 1.111246572891e+006 1.111246572891e+006 1.111246572891e+006 1.111246572891e+006 1.111246572891e+006 1.111246572891e+006 1.111246572891e+006 1.111246572891e+006 1.109870407652e+006 1.109870407652e+006 1.109870407652e+006 1.109870407652e+006 1.109870407652e+006 1.109870407652e+006 1.109870407652e+006 1.109870407652e+006 1.109870407652e+006 1.108466482443e+006 1.108466482443e+006 1.108466482443e+006 1.108466482443e+006 1.108466482443e+006 1.108466482443e+006 1.108466482444e+006 1.108466482443e+006 1.108466482443e+006 1.107005364714e+006 1.107005364714e+006 1.107005364713e+006 1.107005364713e+006 1.107005364713e+006 1.107005364714e+006 1.107005364714e+006 1.107005364714e+006 1.107005364714e+006 1.105520735917e+006 1.105520735917e+006 1.105520735917e+006 1.105520735917e+006 1.105520735917e+006 1.105520735917e+006 1.105520735917e+006 1.105520735917e+006 1.105520735917e+006 1.104008544421e+006 1.104008544421e+006 1.104008544421e+006 1.104008544421e+006 1.104008544421e+006 1.104008544421e+006 1.104008544421e+006 1.104008544421e+006 1.104008544421e+006 1.102423160767e+006 1.102423160767e+006 1.102423160767e+006 1.102423160767e+006 1.102423160767e+006 1.102423160767e+006 1.102423160767e+006 1.102423160767e+006 1.102423160767e+006 1.100826737452e+006 1.100826737452e+006 1.100826737452e+006 1.100826737452e+006 1.100826737452e+006 1.100826737452e+006 1.100826737452e+006 1.100826737452e+006 1.100826737452e+006 1.099194485740e+006 1.099194485739e+006 1.099194485739e+006 1.099194485739e+006 1.099194485739e+006 1.099194485739e+006 1.099194485740e+006 1.099194485739e+006 1.099194485739e+006 1.097529469388e+006 1.097529469389e+006 1.097529469388e+006 1.097529469388e+006 1.097529469389e+006 1.097529469389e+006 1.097529469389e+006 1.097529469389e+006 1.097529469389e+006 1.095824328195e+006 1.095824328195e+006 1.095824328195e+006 1.095824328195e+006 1.095824328195e+006 1.095824328195e+006 1.095824328195e+006 1.095824328195e+006 1.095824328195e+006 1.094053020627e+006 1.094053020627e+006 1.094053020627e+006 1.094053020627e+006 1.094053020626e+006 1.094053020627e+006 1.094053020627e+006 1.094053020627e+006 1.094053020627e+006 1.092261900272e+006 1.092261900272e+006 1.092261900272e+006 1.092261900272e+006 1.092261900272e+006 1.092261900272e+006 1.092261900272e+006 1.092261900272e+006 1.092261900272e+006 1.090489129269e+006 1.090489129269e+006 1.090489129269e+006 1.090489129269e+006 1.090489129269e+006 1.090489129269e+006 1.090489129269e+006 1.090489129269e+006 1.090489129269e+006 1.088630243752e+006 1.088630243753e+006 1.088630243753e+006 1.088630243752e+006 1.088630243752e+006 1.088630243752e+006 1.088630243752e+006 1.088630243752e+006 1.088630243753e+006 1.086730563694e+006 1.086730563694e+006 1.086730563694e+006 1.086730563694e+006 1.086730563694e+006 1.086730563694e+006 1.086730563694e+006 1.086730563694e+006 1.086730563693e+006 1.084791370469e+006 1.084791370469e+006 1.084791370469e+006 1.084791370469e+006 1.084791370469e+006 1.084791370469e+006 1.084791370469e+006 1.084791370469e+006 1.084791370468e+006 1.082825537092e+006 1.082825537092e+006 1.082825537092e+006 1.082825537092e+006 1.082825537092e+006 1.082825537092e+006 1.082825537092e+006 1.082825537092e+006 1.082825537092e+006 1.080884871581e+006 1.080884871580e+006 1.080884871580e+006 1.080884871581e+006 1.080884871581e+006 1.080884871581e+006 1.080884871581e+006 1.080884871581e+006 1.080884871581e+006 1.078919305671e+006 1.078919305671e+006 1.078919305670e+006 1.078919305671e+006 1.078919305671e+006 1.078919305671e+006 1.078919305670e+006 1.078919305671e+006 1.078919305671e+006 1.076892356055e+006 1.076892356054e+006 1.076892356054e+006 1.076892356054e+006 1.076892356054e+006 1.076892356054e+006 1.076892356054e+006 1.076892356054e+006 1.076892356054e+006 1.074794988408e+006 1.074794988408e+006 1.074794988408e+006 1.074794988408e+006 1.074794988408e+006 1.074794988408e+006 1.074794988408e+006 1.074794988408e+006 1.074794988408e+006 1.072677142788e+006 1.072677142788e+006 1.072677142788e+006 1.072677142788e+006 1.072677142788e+006 1.072677142788e+006 1.072677142788e+006 1.072677142788e+006 1.072677142788e+006 1.070506349536e+006 1.070506349536e+006 1.070506349537e+006 1.070506349537e+006 1.070506349536e+006 1.070506349536e+006 1.070506349537e+006 1.070506349537e+006 1.070506349537e+006 1.068300788415e+006 1.068300788415e+006 1.068300788415e+006 1.068300788416e+006 1.068300788415e+006 1.068300788415e+006 1.068300788415e+006 1.068300788416e+006 1.068300788416e+006 1.066186710276e+006 1.066186710275e+006 1.066186710276e+006 1.066186710276e+006 1.066186710275e+006 1.066186710275e+006 1.066186710275e+006 1.066186710276e+006 1.066186710276e+006 1.064161017822e+006 1.064161017821e+006 1.064161017822e+006 1.064161017822e+006 1.064161017822e+006 1.064161017822e+006 1.064161017822e+006 1.064161017822e+006 1.064161017822e+006 1.061932560509e+006 1.061932560509e+006 1.061932560509e+006 1.061932560509e+006 1.061932560509e+006 1.061932560508e+006 1.061932560509e+006 1.061932560509e+006 1.061932560509e+006 1.059692393035e+006 1.059692393034e+006 1.059692393034e+006 1.059692393035e+006 1.059692393034e+006 1.059692393035e+006 1.059692393035e+006 1.059692393035e+006 1.059692393035e+006 1.057752538135e+006 1.057752538135e+006 1.057752538135e+006 1.057752538134e+006 1.057752538135e+006 1.057752538135e+006 1.057752538135e+006 1.057752538135e+006 1.057752538135e+006 1.055618338398e+006 1.055618338398e+006 1.055618338398e+006 1.055618338398e+006 1.055618338398e+006 1.055618338398e+006 1.055618338398e+006 1.055618338398e+006 1.055618338399e+006 1.054028541464e+006 1.054028541464e+006 1.054028541464e+006 1.054028541464e+006 1.054028541464e+006 1.054028541465e+006 1.054028541465e+006 1.054028541465e+006 1.054028541465e+006 1.052438803611e+006 1.052438803611e+006 1.052438803611e+006 1.052438803611e+006 1.052438803611e+006 1.052438803611e+006 1.052438803611e+006 1.052438803611e+006 1.052438803612e+006 1.050849123600e+006 1.050849123600e+006 1.050849123600e+006 1.050849123600e+006 1.050849123600e+006 1.050849123600e+006 1.050849123600e+006 1.050849123600e+006 1.050849123601e+006 1.049259500157e+006 1.049259500157e+006 1.049259500157e+006 1.049259500157e+006 1.049259500157e+006 1.049259500157e+006 1.049259500157e+006 1.049259500157e+006 1.049259500157e+006 1.047669931940e+006 1.047669931939e+006 1.047669931939e+006 1.047669931940e+006 1.047669931940e+006 1.047669931940e+006 1.047669931940e+006 1.047669931940e+006 1.047669931939e+006 1.046080417529e+006 1.046080417529e+006 1.046080417529e+006 1.046080417529e+006 1.046080417530e+006 1.046080417530e+006 1.046080417530e+006 1.046080417529e+006 1.046080417529e+006 1.044490955422e+006 1.044490955422e+006 1.044490955422e+006 1.044490955422e+006 1.044490955422e+006 1.044490955422e+006 1.044490955422e+006 1.044490955421e+006 1.044490955422e+006 1.042901544027e+006 1.042901544027e+006 1.042901544027e+006 1.042901544027e+006 1.042901544027e+006 1.042901544027e+006 1.042901544027e+006 1.042901544026e+006 1.042901544026e+006 1.041312181679e+006 1.041312181679e+006 1.041312181679e+006 1.041312181679e+006 1.041312181679e+006 1.041312181679e+006 1.041312181679e+006 1.041312181679e+006 1.041312181679e+006 1.039722866649e+006 1.039722866649e+006 1.039722866649e+006 1.039722866649e+006 1.039722866649e+006 1.039722866649e+006 1.039722866649e+006 1.039722866649e+006 1.039722866649e+006 1.038133597159e+006 1.038133597159e+006 1.038133597159e+006 1.038133597159e+006 1.038133597159e+006 1.038133597158e+006 1.038133597158e+006 1.038133597158e+006 1.038133597158e+006 1.036544371397e+006 1.036544371397e+006 1.036544371397e+006 1.036544371397e+006 1.036544371397e+006 1.036544371397e+006 1.036544371397e+006 1.036544371397e+006 1.036544371397e+006 1.034955187532e+006 1.034955187532e+006 1.034955187531e+006 1.034955187531e+006 1.034955187531e+006 1.034955187531e+006 1.034955187531e+006 1.034955187531e+006 1.034955187531e+006 1.033366043717e+006 1.033366043717e+006 1.033366043717e+006 1.033366043717e+006 1.033366043717e+006 1.033366043717e+006 1.033366043717e+006 1.033366043717e+006 1.033366043717e+006 1.031776938104e+006 1.031776938104e+006 1.031776938104e+006 1.031776938104e+006 1.031776938104e+006 1.031776938104e+006 1.031776938104e+006 1.031776938104e+006 1.031776938104e+006 1.030187868840e+006 1.030187868840e+006 1.030187868840e+006 1.030187868840e+006 1.030187868840e+006 1.030187868840e+006 1.030187868840e+006 1.030187868840e+006 1.030187868840e+006 1.028598834075e+006 1.028598834075e+006 1.028598834075e+006 1.028598834075e+006 1.028598834075e+006 1.028598834075e+006 1.028598834075e+006 1.028598834075e+006 1.028598834075e+006 1.027009831958e+006 1.027009831958e+006 1.027009831958e+006 1.027009831958e+006 1.027009831958e+006 1.027009831958e+006 1.027009831958e+006 1.027009831958e+006 1.027009831958e+006 1.025420860641e+006 1.025420860641e+006 1.025420860641e+006 1.025420860641e+006 1.025420860641e+006 1.025420860641e+006 1.025420860641e+006 1.025420860641e+006 1.025420860641e+006 1.023831918276e+006 1.023831918276e+006 1.023831918276e+006 1.023831918276e+006 1.023831918276e+006 1.023831918277e+006 1.023831918277e+006 1.023831918276e+006 1.023831918277e+006 1.022243003018e+006 1.022243003018e+006 1.022243003018e+006 1.022243003018e+006 1.022243003018e+006 1.022243003018e+006 1.022243003018e+006 1.022243003018e+006 1.022243003018e+006 1.020654113018e+006 1.020654113018e+006 1.020654113018e+006 1.020654113018e+006 1.020654113018e+006 1.020654113018e+006 1.020654113018e+006 1.020654113018e+006 1.020654113018e+006 1.019065246429e+006 1.019065246429e+006 1.019065246429e+006 1.019065246429e+006 1.019065246429e+006 1.019065246429e+006 1.019065246429e+006 1.019065246429e+006 1.019065246429e+006 1.017476401405e+006 1.017476401405e+006 1.017476401405e+006 1.017476401405e+006 1.017476401405e+006 1.017476401405e+006 1.017476401405e+006 1.017476401405e+006 1.017476401405e+006 1.015887576096e+006 1.015887576096e+006 1.015887576096e+006 1.015887576096e+006 1.015887576096e+006 1.015887576096e+006 1.015887576096e+006 1.015887576096e+006 1.015887576096e+006 1.014298768652e+006 1.014298768652e+006 1.014298768652e+006 1.014298768652e+006 1.014298768652e+006 1.014298768652e+006 1.014298768652e+006 1.014298768652e+006 1.014298768652e+006 1.012709977224e+006 1.012709977224e+006 1.012709977224e+006 1.012709977224e+006 1.012709977224e+006 1.012709977224e+006 1.012709977224e+006 1.012709977224e+006 1.012709977224e+006 1.011121199959e+006 1.011121199959e+006 1.011121199959e+006 1.011121199959e+006 1.011121199959e+006 1.011121199959e+006 1.011121199959e+006 1.011121199959e+006 1.011121199959e+006 1.009532435006e+006 1.009532435006e+006 1.009532435006e+006 1.009532435006e+006 1.009532435006e+006 1.009532435006e+006 1.009532435006e+006 1.009532435006e+006 1.009532435006e+006 1.007943680511e+006 1.007943680511e+006 1.007943680511e+006 1.007943680511e+006 1.007943680511e+006 1.007943680511e+006 1.007943680511e+006 1.007943680511e+006 1.007943680511e+006 1.006354934621e+006 1.006354934621e+006 1.006354934621e+006 1.006354934621e+006 1.006354934621e+006 1.006354934621e+006 1.006354934621e+006 1.006354934621e+006 1.006354934621e+006 1.004766195480e+006 1.004766195480e+006 1.004766195480e+006 1.004766195480e+006 1.004766195480e+006 1.004766195480e+006 1.004766195480e+006 1.004766195480e+006 1.004766195480e+006 1.003177461234e+006 1.003177461234e+006 1.003177461234e+006 1.003177461234e+006 1.003177461234e+006 1.003177461234e+006 1.003177461234e+006 1.003177461234e+006 1.003177461234e+006 1.001588730026e+006 1.001588730026e+006 1.001588730026e+006 1.001588730026e+006 1.001588730026e+006 1.001588730026e+006 1.001588730026e+006 1.001588730026e+006 1.001588730026e+006 1.000000000000e+006 1.000000000000e+006 1.000000000000e+006 1.000000000000e+006 1.000000000000e+006 1.000000000000e+006 1.000000000000e+006 1.000000000000e+006 1.000000000000e+006 
        </DataArray>
        <DataArray type="Float64" Name="MOLAR_FRACTION" format="ascii">