<?xml version="1.0"?>
<VTKFile type="UnstructuredGrid" version="0.1" byte_order="LittleEndian">
  <UnstructuredGrid>
    <Piece NumberOfPoints="909" NumberOfCells="800">
      <Points>
        <DataArray type="Float64" NumberOfComponents="3" format="ascii">
          0.000000000000e+000 0.000000000000e+000 0.000000000000e+000
          2.000000000000e+000 0.000000000000e+000 0.000000000000e+000
          2.000000000000e+000 2.500000000000e+000 0.000000000000e+000
          0.000000000000e+000 2.500000000000e+000 0.000000000000e+000
          2.000000000000e+000 5.000000000000e+000 0.000000000000e+000
          0.000000000000e+000 5.000000000000e+000 0.000000000000e+000
          2.000000000000e+000 7.500000000000e+000 0.000000000000e+000
          0.000000000000e+000 7.500000000000e+000 0.000000000000e+000
          2.000000000000e+000 1.000000000000e+001 0.000000000000e+000
          0.000000000000e+000 1.000000000000e+001 0.000000000000e+000
          2.000000000000e+000 1.250000000000e+001 0.000000000000e+000
          0.000000000000e+000 1.250000000000e+001 0.000000000000e+000
          2.000000000000e+000 1.500000000000e+001 0.000000000000e+000
          0.000000000000e+000 1.500000000000e+001 0.000000000000e+000
          2.000000000000e+000 1.750000000000e+001 0.000000000000e+000
          0.000000000000e+000 1.750000000000e+001 0.000000000000e+000
          2.000000000000e+000 2.000000000000e+001 0.000000000000e+000
          0.000000000000e+000 2.000000000000e+001 0.000000000000e+000
          4.000000000000e+000 0.000000000000e+000 0.000000000000e+000
          4.000000000000e+000 2.500000000000e+000 0.000000000000e+000
          4.000000000000e+000 5.000000000000e+000 0.000000000000e+000
          4.000000000000e+000 7.500000000000e+000 0.000000000000e+000
          4.000000000000e+000 1.000000000000e+001 0.000000000000e+000
          4.000000000000e+000 1.250000000000e+001 0.000000000000e+000
          4.000000000000e+000 1.500000000000e+001 0.000000000000e+000
          4.000000000000e+000 1.750000000000e+001 0.000000000000e+000
          4.000000000000e+000 2.000000000000e+001 0.000000000000e+000
          6.000000000000e+000 0.000000000000e+000 0.000000000000e+000
          6.000000000000e+000 2.500000000000e+000 0.000000000000e+000
          6.000000000000e+000 5.000000000000e+000 0.000000000000e+000
          6.000000000000e+000 7.500000000000e+000 0.000000000000e+000
          6.000000000000e+000 1.000000000000e+001 0.000000000000e+000
          6.000000000000e+000 1.250000000000e+001 0.000000000000e+000
          6.000000000000e+000 1.500000000000e+001 0.000000000000e+000
          6.000000000000e+000 1.750000000000e+001 0.000000000000e+000
          6.000000000000e+000 2.000000000000e+001 0.000000000000e+000
          8.000000000000e+000 0.000000000000e+000 0.000000000000e+000
          8.000000000000e+000 2.500000000000e+000 0.000000000000e+000
          8.000000000000e+000 5.000000000000e+000 0.000000000000e+000
          8.000000000000e+000 7.500000000000e+000 0.000000000000e+000
          8.000000000000e+000 1.000000000000e+001 0.000000000000e+000
          8.000000000000e+000 1.250000000000e+001 0.000000000000e+000
          8.000000000000e+000 1.500000000000e+001 0.000000000000e+000
          8.000000000000e+000 1.750000000000e+001 0.000000000000e+000
          8.000000000000e+000 2.000000000000e+001 0.000000000000e+000
          1.000000000000e+001 0.000000000000e+000 0.000000000000e+000
          1.000000000000e+001 2.500000000000e+000 0.000000000000e+000
          1.000000000000e+001 5.000000000000e+000 0.000000000000e+000
          1.000000000000e+001 7.500000000000e+000 0.000000000000e+000
          1.000000000000e+001 1.000000000000e+001 0.000000000000e+000
          1.000000000000e+001 1.250000000000e+001 0.000000000000e+000
          1.000000000000e+001 1.500000000000e+001 0.000000000000e+000
          1.000000000000e+001 1.750000000000e+001 0.000000000000e+000
          1.000000000000e+001 2.000000000000e+001 0.000000000000e+000
          1.200000000000e+001 0.000000000000e+000 0.000000000000e+000
          1.200000000000e+001 2.500000000000e+000 0.000000000000e+000
          1.200000000000e+001 5.000000000000e+000 0.000000000000e+000
          1.200000000000e+001 7.500000000000e+000 0.000000000000e+000
          1.200000000000e+001 1.000000000000e+001 0.000000000000e+000
          1.200000000000e+001 1.250000000000e+001 0.000000000000e+000
          1.200000000000e+001 1.500000000000e+001 0.000000000000e+000
          1.200000000000e+001 1.750000000000e+001 0.000000000000e+000
          1.200000000000e+001 2.000000000000e+001 0.000000000000e+000
          1.400000000000e+001 0.000000000000e+000 0.000000000000e+000
          1.400000000000e+001 2.500000000000e+000 0.000000000000e+000
          1.400000000000e+001 5.000000000000e+000 0.000000000000e+000
          1.400000000000e+001 7.500000000000e+000 0.000000000000e+000
          1.400000000000e+001 1.000000000000e+001 0.000000000000e+000
          1.400000000000e+001 1.250000000000e+001 0.000000000000e+000
          1.400000000000e+001 1.500000000000e+001 0.000000000000e+000
          1.400000000000e+001 1.750000000000e+001 0.000000000000e+000
          1.400000000000e+001 2.000000000000e+001 0.000000000000e+000
          1.600000000000e+001 0.000000000000e+000 0.000000000000e+000
          1.600000000000e+001 2.500000000000e+000 0.000000000000e+000
          1.600000000000e+001 5.000000000000e+000 0.000000000000e+000
          1.600000000000e+001 7.500000000000e+000 0.000000000000e+000
          1.600000000000e+001 1.000000000000e+001 0.000000000000e+000
          1.600000000000e+001 1.250000000000e+001 0.000000000000e+000
          1.600000000000e+001 1.500000000000e+001 0.000000000000e+000
          1.600000000000e+001 1.750000000000e+001 0.000000000000e+000
          1.600000000000e+001 2.000000000000e+001 0.000000000000e+000
          1.800000000000e+001 0.000000000000e+000 0.000000000000e+000
          1.800000000000e+001 2.500000000000e+000 0.000000000000e+000
          1.800000000000e+001 5.000000000000e+000 0.000000000000e+000
          1.800000000000e+001 7.500000000000e+000 0.000000000000e+000
          1.800000000000e+001 1.000000000000e+001 0.000000000000e+000
          1.800000000000e+001 1.250000000000e+001 0.000000000000e+000
          1.800000000000e+001 1.500000000000e+001 0.000000000000e+000
          1.800000000000e+001 1.750000000000e+001 0.000000000000e+000
          1.800000000000e+001 2.000000000000e+001 0.000000000000e+000
          2.000000000000e+001 0.000000000000e+000 0.000000000000e+000
          2.000000000000e+001 2.500000000000e+000 0.000000000000e+000
          2.000000000000e+001 5.000000000000e+000 0.000000000000e+000
          2.000000000000e+001 7.500000000000e+000 0.000000000000e+000
          2.000000000000e+001 1.000000000000e+001 0.000000000000e+000
          2.000000000000e+001 1.250000000000e+001 0.000000000000e+000
          2.000000000000e+001 1.500000000000e+001 0.000000000000e+000
          2.000000000000e+001 1.750000000000e+001 0.000000000000e+000
          2.000000000000e+001 2.000000000000e+001 0.000000000000e+000
          2.200000000000e+001 0.000000000000e+000 0.000000000000e+000
          2.200000000000e+001 2.500000000000e+000 0.000000000000e+000
          2.200000000000e+001 5.000000000000e+000 0.000000000000e+000
          2.200000000000e+001 7.500000000000e+000 0.000000000000e+000
          2.200000000000e+001 1.000000000000e+001 0.000000000000e+000
          2.200000000000e+001 1.250000000000e+001 0.000000000000e+000
          2.200000000000e+001 1.500000000000e+001 0.000000000000e+000
          2.200000000000e+001 1.750000000000e+001 0.000000000000e+000
          2.200000000000e+001 2.000000000000e+001 0.000000000000e+000
          2.400000000000e+001 0.000000000000e+000 0.000000000000e+000
          2.400000000000e+001 2.500000000000e+000 0.000000000000e+000
          2.400000000000e+001 5.000000000000e+000 0.000000000000e+000
          2.400000000000e+001 7.500000000000e+000 0.000000000000e+000
          2.400000000000e+001 1.000000000000e+001 0.000000000000e+000
          2.400000000000e+001 1.250000000000e+001 0.000000000000e+000
          2.400000000000e+001 1.500000000000e+001 0.000000000000e+000
          2.400000000000e+001 1.750000000000e+001 0.000000000000e+000
          2.400000000000e+001 2.000000000000e+001 0.000000000000e+000
          2.600000000000e+001 0.000000000000e+000 0.000000000000e+000
          2.600000000000e+001 2.500000000000e+000 0.000000000000e+000
          2.600000000000e+001 5.000000000000e+000 0.000000000000e+000
          2.600000000000e+001 7.500000000000e+000 0.000000000000e+000
          2.600000000000e+001 1.000000000000e+001 0.000000000000e+000
          2.600000000000e+001 1.250000000000e+001 0.000000000000e+000
          2.600000000000e+001 1.500000000000e+001 0.000000000000e+000
          2.600000000000e+001 1.750000000000e+001 0.000000000000e+000
          2.600000000000e+001 2.000000000000e+001 0.000000000000e+000
          2.800000000000e+001 0.000000000000e+000 0.000000000000e+000
          2.800000000000e+001 2.500000000000e+000 0.000000000000e+000
          2.800000000000e+001 5.000000000000e+000 0.000000000000e+000
          2.800000000000e+001 7.500000000000e+000 0.000000000000e+000
          2.800000000000e+001 1.000000000000e+001 0.000000000000e+000
          2.800000000000e+001 1.250000000000e+001 0.000000000000e+000
          2.800000000000e+001 1.500000000000e+001 0.000000000000e+000
          2.800000000000e+001 1.750000000000e+001 0.000000000000e+000
          2.800000000000e+001 2.000000000000e+001 0.000000000000e+000
          3.000000000000e+001 0.000000000000e+000 0.000000000000e+000
          3.000000000000e+001 2.500000000000e+000 0.000000000000e+000
          3.000000000000e+001 5.000000000000e+000 0.000000000000e+000
          3.000000000000e+001 7.500000000000e+000 0.000000000000e+000
[...]
      <PointData Scalars="LIQUID_PRESSURE">
        <DataArray type="Float64" Name="LIQUID_PRESSURE" format="ascii">
          1.005274057065e+006 1.005284363924e+006 1.005284363931e+006 1.005274057011e+006 1.005284363950e+006 1.005274056964e+006 1.005284363920e+006 1.005274057029e+006 1.005284363936e+006 1.005274057014e+006 1.005284363965e+006 1.005274056935e+006 1.005284363965e+006 1.005274056945e+006 1.005284363977e+006 1.005274056925e+006 1.005284363998e+006 1.005274056870e+006 1.005284744269e+006 1.005284744293e+006 1.005284744300e+006 1.005284744279e+006 1.005284744278e+006 1.005284744298e+006 1.005284744280e+006 1.005284744290e+006 1.005284744308e+006 1.005257211246e+006 1.005257211255e+006 1.005257211259e+006 1.005257211247e+006 1.005257211248e+006 1.005257211257e+006 1.005257211248e+006 1.005257211243e+006 1.005257211249e+006 1.005274387723e+006 1.005274387726e+006 1.005274387728e+006 1.005274387719e+006 1.005274387718e+006 1.005274387724e+006 1.005274387715e+006 1.005274387714e+006 1.005274387720e+006 1.005253647793e+006 1.005253647797e+006 1.005253647793e+006 1.005253647793e+006 1.005253647789e+006 1.005253647796e+006 1.005253647785e+006 1.005253647791e+006 1.005253647799e+006 1.005231585928e+006 1.005231585926e+006 1.005231585929e+006 1.005231585929e+006 1.005231585929e+006 1.005231585928e+006 1.005231585927e+006 1.005231585930e+006 1.005231585931e+006 1.005241976529e+006 1.005241976522e+006 1.005241976525e+006 1.005241976526e+006 1.005241976522e+006 1.005241976523e+006 1.005241976523e+006 1.005241976523e+006 1.005241976528e+006 1.005201575636e+006 1.005201575623e+006 1.005201575629e+006 1.005201575629e+006 1.005201575624e+006 1.005201575622e+006 1.005201575626e+006 1.005201575628e+006 1.005201575623e+006 1.005197924061e+006 1.005197924055e+006 1.005197924059e+006 1.005197924058e+006 1.005197924056e+006 1.005197924053e+006 1.005197924060e+006 1.005197924055e+006 1.005197924056e+006 1.005177908894e+006 1.005177908907e+006 1.005177908904e+006 1.005177908903e+006 1.005177908905e+006 1.005177908902e+006 1.005177908908e+006 1.005177908906e+006 1.005177908900e+006 1.005146248124e+006 1.005146248125e+006 1.005146248123e+006 1.005146248123e+006 1.005146248122e+006 1.005146248114e+006 1.005146248130e+006 1.005146248129e+006 1.005146248121e+006 1.005138122622e+006 1.005138122615e+006 1.005138122624e+006 1.005138122616e+006 1.005138122617e+006 1.005138122620e+006 1.005138122615e+006 1.005138122616e+006 1.005138122624e+006 1.005095890584e+006 1.005095890580e+006 1.005095890574e+006 1.005095890578e+006 1.005095890577e+006 1.005095890574e+006 1.005095890577e+006 1.005095890571e+006 1.005095890575e+006 1.005082974120e+006 1.005082974115e+006 1.005082974110e+006 1.005082974116e+006 1.005082974114e+006 1.005082974116e+006 1.005082974113e+006 1.005082974114e+006 1.005082974112e+006 1.005045426349e+006 1.005045426352e+006 1.005045426353e+006 1.005045426350e+006 1.005045426351e+006 1.005045426344e+006 1.005045426347e+006 1.005045426345e+006 1.005045426350e+006 1.005014422242e+006 1.005014422241e+006 1.005014422237e+006 1.005014422237e+006 1.005014422239e+006 1.005014422234e+006 1.005014422238e+006 1.005014422236e+006 1.005014422237e+006 1.004991422702e+006 1.004991422713e+006 1.004991422704e+006 1.004991422711e+006 1.004991422710e+006 1.004991422711e+006 1.004991422714e+006 1.004991422704e+006 1.004991422709e+006 1.004939451865e+006 1.004939451863e+006 1.004939451863e+006 1.004939451856e+006 1.004939451859e+006 1.004939451867e+006 1.004939451858e+006 1.004939451864e+006 1.004939451864e+006 1.004921833623e+006 1.004921833615e+006 1.004921833616e+006 1.004921833620e+006 1.004921833618e+006 1.004921833612e+006 1.004921833616e+006 1.004921833616e+006 1.004921833624e+006 1.004870354533e+006 1.004870354529e+006 1.004870354528e+006 1.004870354538e+006 1.004870354528e+006 1.004870354531e+006 1.004870354533e+006 1.004870354529e+006 1.004870354538e+006 1.004836807241e+006 1.004836807243e+006 1.004836807242e+006 1.004836807237e+006 1.004836807239e+006 1.004836807238e+006 1.004836807239e+006 1.004836807239e+006 1.004836807238e+006 1.004794853684e+006 1.004794853687e+006 1.004794853688e+006 1.004794853686e+006 1.004794853687e+006 1.004794853690e+006 1.004794853686e+006 1.004794853687e+006 1.004794853688e+006 1.004747840743e+006 1.004747840735e+006 1.004747840736e+006 1.004747840736e+006 1.004747840741e+006 1.004747840738e+006 1.004747840740e+006 1.004747840742e+006 1.004747840737e+006 1.004711718649e+006 1.004711718647e+006 1.004711718644e+006 1.004711718646e+006 1.004711718648e+006 1.004711718646e+006 1.004711718651e+006 1.004711718649e+006 1.004711718646e+006 1.004654125593e+006 1.004654125606e+006 1.004654125598e+006 1.004654125601e+006 1.004654125601e+006 1.004654125599e+006 1.004654125599e+006 1.004654125599e+006 1.004654125596e+006 1.004615891698e+006 1.004615891690e+006 1.004615891697e+006 1.004615891694e+006 1.004615891695e+006 1.004615891693e+006 1.004615891693e+006 1.004615891700e+006 1.004615891691e+006 1.004563608118e+006 1.004563608114e+006 1.004563608112e+006 1.004563608118e+006 1.004563608116e+006 1.004563608112e+006 1.004563608116e+006 1.004563608112e+006 1.004563608118e+006 1.004506936323e+006 1.004506936319e+006 1.004506936316e+006 1.004506936316e+006 1.004506936321e+006 1.004506936320e+006 1.004506936320e+006 1.004506936320e+006 1.004506936325e+006 1.004467222220e+006 1.004467222220e+006 1.004467222219e+006 1.004467222220e+006 1.004467222219e+006 1.004467222221e+006 1.004467222219e+006 1.004467222217e+006 1.004467222220e+006 1.004400692306e+006 1.004400692302e+006 1.004400692304e+006 1.004400692307e+006 1.004400692305e+006 1.004400692300e+006 1.004400692300e+006 1.004400692301e+006 1.004400692298e+006 1.004351808863e+006 1.004351808868e+006 1.004351808869e+006 1.004351808874e+006 1.004351808874e+006 1.004351808867e+006 1.004351808873e+006 1.004351808870e+006 1.004351808871e+006 1.004299356958e+006 1.004299356956e+006 1.004299356956e+006 1.004299356957e+006 1.004299356960e+006 1.004299356958e+006 1.004299356957e+006 1.004299356953e+006 1.004299356958e+006 1.004230038599e+006 1.004230038594e+006 1.004230038597e+006 1.004230038596e+006 1.004230038597e+006 1.004230038594e+006 1.004230038594e+006 1.004230038594e+006 1.004230038590e+006 1.004183500317e+006 1.004183500319e+006 1.004183500318e+006 1.004183500318e+006 1.004183500321e+006 1.004183500316e+006 1.004183500322e+006 1.004183500315e+006 1.004183500316e+006 1.004116992358e+006 1.004116992359e+006 1.004116992357e+006 1.004116992356e+006 1.004116992360e+006 1.004116992359e+006 1.004116992357e+006 1.004116992359e+006 1.004116992356e+006 1.004053601403e+006 1.004053601405e+006 1.004053601403e+006 1.004053601402e+006 1.004053601406e+006 1.004053601403e+006 1.004053601405e+006 1.004053601404e+006 1.004053601405e+006 1.003998244849e+006 1.003998244854e+006 1.003998244856e+006 1.003998244856e+006 1.003998244857e+006 1.003998244857e+006 1.003998244857e+006 1.003998244856e+006 1.003998244853e+006 1.003928748929e+006 1.003928748925e+006 1.003928748920e+006 1.003928748925e+006 1.003928748924e+006 1.003928748926e+006 1.003928748921e+006 1.003928748923e+006 1.003928748924e+006 1.003862649169e+006 1.003862649167e+006 1.003862649167e+006 1.003862649164e+006 1.003862649168e+006 1.003862649164e+006 1.003862649165e+006 1.003862649165e+006 1.003862649171e+006 1.003805737808e+006 1.003805737808e+006 1.003805737806e+006 1.003805737809e+006 1.003805737805e+006 1.003805737807e+006 1.003805737807e+006 1.003805737805e+006 1.003805737806e+006 1.003729787195e+006 1.003729787198e+006 1.003729787196e+006 1.003729787197e+006 1.003729787198e+006 1.003729787196e+006 1.003729787196e+006 1.003729787197e+006 1.003729787197e+006 1.003666023371e+006 1.003666023372e+006 1.003666023373e+006 1.003666023373e+006 1.003666023376e+006 1.003666023369e+006 1.003666023378e+006 1.003666023371e+006 1.003666023373e+006 1.003598302587e+006 1.003598302591e+006 1.003598302590e+006 1.003598302587e+006 1.003598302592e+006 1.003598302591e+006 1.003598302589e+006 1.003598302595e+006 1.003598302592e+006 1.003524502520e+006 1.003524502527e+006 1.003524502525e+006 1.003524502524e+006 1.003524502525e+006 1.003524502525e+006 1.003524502524e+006 1.003524502525e+006 1.003524502525e+006 1.003461986865e+006 1.003461986868e+006 1.003461986866e+006 1.003461986870e+006 1.003461986867e+006 1.003461986867e+006 1.003461986866e+006 1.003461986865e+006 1.003461986867e+006 1.003387291751e+006 1.003387291752e+006 1.003387291755e+006 1.003387291756e+006 1.003387291752e+006 1.003387291756e+006 1.003387291756e+006 1.003387291753e+006 1.003387291755e+006 1.003307720495e+006 1.003307720496e+006 1.003307720496e+006 1.003307720495e+006 1.003307720498e+006 1.003307720497e+006 1.003307720497e+006 1.003307720494e+006 1.003307720494e+006 1.003249574203e+006 1.003249574206e+006 1.003249574205e+006 1.003249574203e+006 1.003249574205e+006 1.003249574204e+006 1.003249574207e+006 1.003249574205e+006 1.003249574202e+006 1.003167089310e+006 1.003167089314e+006 1.003167089314e+006 1.003167089316e+006 1.003167089315e+006 1.003167089313e+006 1.003167089312e+006 1.003167089312e+006 1.003167089315e+006 1.003095786414e+006 1.003095786413e+006 1.003095786414e+006 1.003095786415e+006 1.003095786413e+006 1.003095786413e+006 1.003095786414e+006 1.003095786413e+006 1.003095786411e+006 1.003024250646e+006 1.003024250643e+006 1.003024250642e+006 1.003024250643e+006 1.003024250639e+006 1.003024250643e+006 1.003024250643e+006 1.003024250642e+006 1.003024250640e+006 1.002944969905e+006 1.002944969906e+006 1.002944969907e+006 1.002944969904e+006 1.002944969900e+006 1.002944969906e+006 1.002944969903e+006 1.002944969903e+006 1.002944969903e+006 1.002871892255e+006 1.002871892259e+006 1.002871892260e+006 1.002871892259e+006 1.002871892260e+006 1.002871892257e+006 1.002871892260e+006 1.002871892258e+006 1.002871892257e+006 1.002800091061e+006 1.002800091059e+006 1.002800091059e+006 1.002800091061e+006 1.002800091060e+006 1.002800091059e+006 1.002800091059e+006 1.002800091061e+006 1.002800091058e+006 1.002720522956e+006 1.002720522958e+006 1.002720522961e+006 1.002720522958e+006 1.002720522959e+006 1.002720522955e+006 1.002720522961e+006 1.002720522959e+006 1.002720522959e+006 1.002642586246e+006 1.002642586247e+006 1.002642586246e+006 1.002642586246e+006 1.002642586245e+006 1.002642586246e+006 1.002642586245e+006 1.002642586247e+006 1.002642586247e+006 1.002568307461e+006 1.002568307462e+006 1.002568307463e+006 1.002568307462e+006 1.002568307462e+006 1.002568307462e+006 1.002568307461e+006 1.002568307462e+006 1.002568307461e+006 1.002505209431e+006 1.002505209434e+006 1.002505209433e+006 1.002505209433e+006 1.002505209436e+006 1.002505209433e+006 1.002505209436e+006 1.002505209435e+006 1.002505209433e+006 1.002399928849e+006 1.002399928849e+006 1.002399928848e+006 1.002399928847e+006 1.002399928845e+006 1.002399928845e+006 1.002399928846e+006 1.002399928845e+006 1.002399928846e+006 1.002340791278e+006 1.002340791280e+006 1.002340791280e+006 1.002340791282e+006 1.002340791286e+006 1.002340791286e+006 1.002340791284e+006 1.002340791286e+006 1.002340791285e+006 1.002273259770e+006 1.002273259772e+006 1.002273259772e+006 1.002273259765e+006 1.002273259762e+006 1.002273259760e+006 1.002273259758e+006 1.002273259760e+006 1.002273259756e+006 1.002192383469e+006 1.002192383471e+006 1.002192383473e+006 1.002192383482e+006 1.002192383487e+006 1.002192383490e+006 1.002192383488e+006 1.002192383492e+006 1.002192383492e+006 1.002069708596e+006 1.002069708593e+006 1.002069708593e+006 1.002069708578e+006 1.002069708573e+006 1.002069708569e+006 1.002069708569e+006 1.002069708567e+006 1.002069708567e+006 1.002097393220e+006 1.002097393220e+006 1.002097393214e+006 1.002097393237e+006 1.002097393241e+006 1.002097393243e+006 1.002097393247e+006 1.002097393247e+006 1.002097393254e+006 1.001886661243e+006 1.001886661237e+006 1.001886661242e+006 1.001886661224e+006 1.001886661223e+006 1.001886661220e+006 1.001886661217e+006 1.001886661218e+006 1.001886661218e+006 1.001939907746e+006 1.001939907751e+006 1.001939907749e+006 1.001939907752e+006 1.001939907760e+006 1.001939907757e+006 1.001939907759e+006 1.001939907760e+006 1.001939907761e+006 1.001776890235e+006 1.001776890236e+006 1.001776890232e+006 1.001776890244e+006 1.001776890238e+006 1.001776890238e+006 1.001776890236e+006 1.001776890240e+006 1.001776890235e+006 1.001728840749e+006 1.001728840750e+006 1.001728840748e+006 1.001728840753e+006 1.001728840748e+006 1.001728840749e+006 1.001728840749e+006 1.001728840747e+006 1.001728840749e+006 1.001666496069e+006 1.001666496071e+006 1.001666496069e+006 1.001666496072e+006 1.001666496071e+006 1.001666496071e+006 1.001666496071e+006 1.001666496070e+006 1.001666496070e+006 1.001576998485e+006 1.001576998483e+006 1.001576998484e+006 1.001576998484e+006 1.001576998483e+006 1.001576998484e+006 1.001576998485e+006 1.001576998483e+006 1.001576998485e+006 1.001511679375e+006 1.001511679375e+006 1.001511679375e+006 1.001511679375e+006 1.001511679375e+006 1.001511679376e+006 1.001511679376e+006 1.001511679376e+006 1.001511679376e+006 1.001433062421e+006 1.001433062421e+006 1.001433062420e+006 1.001433062422e+006 1.001433062421e+006 1.001433062421e+006 1.001433062422e+006 1.001433062421e+006 1.001433062421e+006 1.001357581018e+006 1.001357581019e+006 1.001357581019e+006 1.001357581018e+006 1.001357581019e+006 1.001357581018e+006 1.001357581018e+006 1.001357581019e+006 1.001357581018e+006 1.001306619681e+006 1.001306619681e+006 1.001306619682e+006 1.001306619682e+006 1.001306619681e+006 1.001306619682e+006 1.001306619681e+006 1.001306619682e+006 1.001306619680e+006 1.001215197939e+006 1.001215197939e+006 1.001215197939e+006 1.001215197939e+006 1.001215197940e+006 1.001215197939e+006 1.001215197939e+006 1.001215197938e+006 1.001215197942e+006 1.001154659061e+006 1.001154659062e+006 1.001154659061e+006 1.001154659059e+006 1.001154659059e+006 1.001154659059e+006 1.001154659060e+006 1.001154659060e+006 1.001154659058e+006 1.001095713033e+006 1.001095713031e+006 1.001095713033e+006 1.001095713032e+006 1.001095713033e+006 1.001095713033e+006 1.001095713032e+006 1.001095713033e+006 1.001095713033e+006 1.001014400294e+006 1.001014400294e+006 1.001014400292e+006 1.001014400293e+006 1.001014400293e+006 1.001014400293e+006 1.001014400293e+006 1.001014400294e+006 1.001014400293e+006 1.000967455294e+006 1.000967455294e+006 1.000967455294e+006 1.000967455294e+006 1.000967455295e+006 1.000967455295e+006 1.000967455294e+006 1.000967455295e+006 1.000967455295e+006 1.000905771817e+006 1.000905771817e+006 1.000905771818e+006 1.000905771817e+006 1.000905771817e+006 1.000905771817e+006 1.000905771817e+006 1.000905771816e+006 1.000905771816e+006 1.000858002779e+006 1.000858002779e+006 1.000858002780e+006 1.000858002779e+006 1.000858002779e+006 1.000858002779e+006 1.000858002779e+006 1.000858002778e+006 1.000858002778e+006 1.000812843870e+006 1.000812843871e+006 1.000812843871e+006 1.000812843871e+006 1.000812843871e+006 1.000812843870e+006 1.000812843870e+006 1.000812843870e+006 1.000812843869e+006 1.000767684721e+006 1.000767684721e+006 1.000767684721e+006 1.000767684721e+006 1.000767684721e+006 1.000767684721e+006 1.000767684720e+006 1.000767684720e+006 1.000767684720e+006 1.000722525843e+006 1.000722525844e+006 1.000722525844e+006 1.000722525844e+006 1.000722525843e+006 1.000722525844e+006 1.000722525843e+006 1.000722525843e+006 1.000722525843e+006 1.000677367149e+006 1.000677367149e+006 1.000677367148e+006 1.000677367148e+006 1.000677367148e+006 1.000677367148e+006 1.000677367148e+006 1.000677367148e+006 1.000677367148e+006 1.000632208630e+006 1.000632208630e+006 1.000632208630e+006 1.000632208630e+006 1.000632208630e+006 1.000632208630e+006 1.000632208630e+006 1.000632208630e+006 1.000632208630e+006 1.000587050273e+006 1.000587050273e+006 1.000587050273e+006 1.000587050273e+006 1.000587050273e+006 1.000587050273e+006 1.000587050273e+006 1.000587050273e+006 1.000587050273e+006 1.000541892064e+006 1.000541892064e+006 1.000541892064e+006 1.000541892064e+006 1.000541892064e+006 1.000541892064e+006 1.000541892064e+006 1.000541892064e+006 1.000541892064e+006 1.000496733988e+006 1.000496733989e+006 1.000496733989e+006 1.000496733989e+006 1.000496733989e+006 1.000496733989e+006 1.000496733989e+006 1.000496733989e+006 1.000496733989e+006 1.000451576034e+006 1.000451576034e+006 1.000451576034e+006 1.000451576034e+006 1.000451576034e+006 1.000451576034e+006 1.000451576034e+006 1.000451576034e+006 1.000451576034e+006 1.000406418185e+006 1.000406418185e+006 1.000406418185e+006 1.000406418185e+006 1.000406418185e+006 1.000406418185e+006 1.000406418185e+006 1.000406418185e+006 1.000406418185e+006 1.000361260429e+006 1.000361260429e+006 1.000361260429e+006 1.000361260429e+006 1.000361260429e+006 1.000361260429e+006 1.000361260429e+006 1.000361260429e+006 1.000361260429e+006 1.000316102750e+006 1.000316102750e+006 1.000316102750e+006 1.000316102750e+006 1.000316102750e+006 1.000316102750e+006 1.000316102750e+006 1.000316102750e+006 1.000316102750e+006 1.000270945136e+006 1.000270945136e+006 1.000270945136e+006 1.000270945136e+006 1.000270945136e+006 1.000270945136e+006 1.000270945136e+006 1.000270945136e+006 1.000270945136e+006 1.000225787571e+006 1.000225787571e+006 1.000225787571e+006 1.000225787571e+006 1.000225787571e+006 1.000225787571e+006 1.000225787571e+006 1.000225787571e+006 1.000225787571e+006 1.000180630042e+006 1.000180630042e+006 1.000180630042e+006 1.000180630042e+006 1.000180630042e+006 1.000180630042e+006 1.000180630042e+006 1.000180630042e+006 1.000180630042e+006 1.000135472535e+006 1.000135472535e+006 1.000135472535e+006 1.000135472535e+006 1.000135472535e+006 1.000135472535e+006 1.000135472535e+006 1.000135472535e+006 1.000135472535e+006 1.000090315035e+006 1.000090315035e+006 1.000090315035e+006 1.000090315035e+006 1.000090315035e+006 1.000090315035e+006 1.000090315035e+006 1.000090315035e+006 1.000090315035e+006 1.000045157528e+006 1.000045157528e+006 1.000045157528e+006 1.000045157528e+006 1.000045157528e+006 1.000045157528e+006 1.000045157528e+006 1.000045157528e+006 1.000045157528e+006 1.000000000000e+006 1.000000000000e+006 1.000000000000e+006 1.000000000000e+006 1.000000000000e+006 1.000000000000e+006 1.000000000000e+006 1.000000000000e+006 1.000000000000e+006 
        </DataArray>
        <DataArray type="Float64" Name="MOLAR_FRACTION" format="ascii">