<?xml version="1.0"?>
<VTKFile type="UnstructuredGrid" version="0.1" byte_order="LittleEndian">
  <UnstructuredGrid>
    <Piece NumberOfPoints="909" NumberOfCells="800">
      <Points>
        <DataArray type="Float64" NumberOfComponents="3" format="ascii">
          0.000000000000e+000 0.000000000000e+000 0.000000000000e+000
          2.000000000000e+000 0.000000000000e+000 0.000000000000e+000
          2.000000000000e+000 2.500000000000e+000 0.000000000000e+000
          0.000000000000e+000 2.500000000000e+000 0.000000000000e+000
          2.000000000000e+000 5.000000000000e+000 0.000000000000e+000
          0.000000000000e+000 5.000000000000e+000 0.000000000000e+000
          2.000000000000e+000 7.500000000000e+000 0.000000000000e+000
          0.000000000000e+000 7.500000000000e+000 0.000000000000e+000
          2.000000000000e+000 1.000000000000e+001 0.000000000000e+000
          0.000000000000e+000 1.000000000000e+001 0.000000000000e+000
          2.000000000000e+000 1.250000000000e+001 0.000000000000e+000
          0.000000000000e+000 1.250000000000e+001 0.000000000000e+000
          2.000000000000e+000 1.500000000000e+001 0.000000000000e+000
          0.000000000000e+000 1.500000000000e+001 0.000000000000e+000
          2.000000000000e+000 1.750000000000e+001 0.000000000000e+000
          0.000000000000e+000 1.750000000000e+001 0.000000000000e+000
          2.000000000000e+000 2.000000000000e+001 0.000000000000e+000
          0.000000000000e+000 2.000000000000e+001 0.000000000000e+000
          4.000000000000e+000 0.000000000000e+000 0.000000000000e+000
          4.000000000000e+000 2.500000000000e+000 0.000000000000e+000
          4.000000000000e+000 5.000000000000e+000 0.000000000000e+000
          4.000000000000e+000 7.500000000000e+000 0.000000000000e+000
          4.000000000000e+000 1.000000000000e+001 0.000000000000e+000
          4.000000000000e+000 1.250000000000e+001 0.000000000000e+000
          4.000000000000e+000 1.500000000000e+001 0.000000000000e+000
          4.000000000000e+000 1.750000000000e+001 0.000000000000e+000
          4.000000000000e+000 2.000000000000e+001 0.000000000000e+000
          6.000000000000e+000 0.000000000000e+000 0.000000000000e+000
          6.000000000000e+000 2.500000000000e+000 0.000000000000e+000
          6.000000000000e+000 5.000000000000e+000 0.000000000000e+000
          6.000000000000e+000 7.500000000000e+000 0.000000000000e+000
          6.000000000000e+000 1.000000000000e+001 0.000000000000e+000
          6.000000000000e+000 1.250000000000e+001 0.000000000000e+000
          6.000000000000e+000 1.500000000000e+001 0.000000000000e+000
          6.000000000000e+000 1.750000000000e+001 0.000000000000e+000
          6.000000000000e+000 2.000000000000e+001 0.000000000000e+000
          8.000000000000e+000 0.000000000000e+000 0.000000000000e+000
          8.000000000000e+000 2.500000000000e+000 0.000000000000e+000
          8.000000000000e+000 5.000000000000e+000 0.000000000000e+000
          8.000000000000e+000 7.500000000000e+000 0.000000000000e+000
          8.000000000000e+000 1.000000000000e+001 0.000000000000e+000
          8.000000000000e+000 1.250000000000e+001 0.000000000000e+000
          8.000000000000e+000 1.500000000000e+001 0.000000000000e+000
          8.000000000000e+000 1.750000000000e+001 0.000000000000e+000
          8.000000000000e+000 2.000000000000e+001 0.000000000000e+000
          1.000000000000e+001 0.000000000000e+000 0.000000000000e+000
          1.000000000000e+001 2.500000000000e+000 0.000000000000e+000
          1.000000000000e+001 5.000000000000e+000 0.000000000000e+000
          1.000000000000e+001 7.500000000000e+000 0.000000000000e+000
          1.000000000000e+001 1.000000000000e+001 0.000000000000e+000
          1.000000000000e+001 1.250000000000e+001 0.000000000000e+000
          1.000000000000e+001 1.500000000000e+001 0.000000000000e+000
          1.000000000000e+001 1.750000000000e+001 0.000000000000e+000
          1.000000000000e+001 2.000000000000e+001 0.000000000000e+000
          1.200000000000e+001 0.000000000000e+000 0.000000000000e+000
          1.200000000000e+001 2.500000000000e+000 0.000000000000e+000
          1.200000000000e+001 5.000000000000e+000 0.000000000000e+000
          1.200000000000e+001 7.500000000000e+000 0.000000000000e+000
          1.200000000000e+001 1.000000000000e+001 0.000000000000e+000
          1.200000000000e+001 1.250000000000e+001 0.000000000000e+000
          1.200000000000e+001 1.500000000000e+001 0.000000000000e+000
          1.200000000000e+001 1.750000000000e+001 0.000000000000e+000
          1.200000000000e+001 2.000000000000e+001 0.000000000000e+000
          1.400000000000e+001 0.000000000000e+000 0.000000000000e+000
          1.400000000000e+001 2.500000000000e+000 0.000000000000e+000
          1.400000000000e+001 5.000000000000e+000 0.000000000000e+000
          1.400000000000e+001 7.500000000000e+000 0.000000000000e+000
          1.400000000000e+001 1.000000000000e+001 0.000000000000e+000
          1.400000000000e+001 1.250000000000e+001 0.000000000000e+000
          1.400000000000e+001 1.500000000000e+001 0.000000000000e+000
          1.400000000000e+001 1.750000000000e+001 0.000000000000e+000
          1.400000000000e+001 2.000000000000e+001 0.000000000000e+000
          1.600000000000e+001 0.000000000000e+000 0.000000000000e+000
          1.600000000000e+001 2.500000000000e+000 0.000000000000e+000
          1.600000000000e+001 5.000000000000e+000 0.000000000000e+000
          1.600000000000e+001 7.500000000000e+000 0.000000000000e+000
          1.600000000000e+001 1.000000000000e+001 0.000000000000e+000
          1.600000000000e+001 1.250000000000e+001 0.000000000000e+000
          1.600000000000e+001 1.500000000000e+001 0.000000000000e+000
          1.600000000000e+001 1.750000000000e+001 0.000000000000e+000
          1.600000000000e+001 2.000000000000e+001 0.000000000000e+000
          1.800000000000e+001 0.000000000000e+000 0.000000000000e+000
          1.800000000000e+001 2.500000000000e+000 0.000000000000e+000
          1.800000000000e+001 5.000000000000e+000 0.000000000000e+000
          1.800000000000e+001 7.500000000000e+000 0.000000000000e+000
          1.800000000000e+001 1.000000000000e+001 0.000000000000e+000
          1.800000000000e+001 1.250000000000e+001 0.000000000000e+000
          1.800000000000e+001 1.500000000000e+001 0.000000000000e+000
          1.800000000000e+001 1.750000000000e+001 0.000000000000e+000
          1.800000000000e+001 2.000000000000e+001 0.000000000000e+000
          2.000000000000e+001 0.000000000000e+000 0.000000000000e+000
          2.000000000000e+001 2.500000000000e+000 0.000000000000e+000
          2.000000000000e+001 5.000000000000e+000 0.000000000000e+000
          2.000000000000e+001 7.500000000000e+000 0.000000000000e+000
          2.000000000000e+001 1.000000000000e+001 0.000000000000e+000
          2.000000000000e+001 1.250000000000e+001 0.000000000000e+000
          2.000000000000e+001 1.500000000000e+001 0.000000000000e+000
          2.000000000000e+001 1.750000000000e+001 0.000000000000e+000
          2.000000000000e+001 2.000000000000e+001 0.000000000000e+000
          2.200000000000e+001 0.000000000000e+000 0.000000000000e+000
          2.200000000000e+001 2.500000000000e+000 0.000000000000e+000
          2.200000000000e+001 5.000000000000e+000 0.000000000000e+000
          2.200000000000e+001 7.500000000000e+000 0.000000000000e+000
          2.200000000000e+001 1.000000000000e+001 0.000000000000e+000
          2.200000000000e+001 1.250000000000e+001 0.000000000000e+000
          2.200000000000e+001 1.500000000000e+001 0.000000000000e+000
          2.200000000000e+001 1.750000000000e+001 0.000000000000e+000
          2.200000000000e+001 2.000000000000e+001 0.000000000000e+000
          2.400000000000e+001 0.000000000000e+000 0.000000000000e+000
          2.400000000000e+001 2.500000000000e+000 0.000000000000e+000
          2.400000000000e+001 5.000000000000e+000 0.000000000000e+000
          2.400000000000e+001 7.500000000000e+000 0.000000000000e+000
          2.400000000000e+001 1.000000000000e+001 0.000000000000e+000
          2.400000000000e+001 1.250000000000e+001 0.000000000000e+000
          2.400000000000e+001 1.500000000000e+001 0.000000000000e+000
          2.400000000000e+001 1.750000000000e+001 0.000000000000e+000
          2.400000000000e+001 2.000000000000e+001 0.000000000000e+000
          2.600000000000e+001 0.000000000000e+000 0.000000000000e+000
          2.600000000000e+001 2.500000000000e+000 0.000000000000e+000
          2.600000000000e+001 5.000000000000e+000 0.000000000000e+000
          2.600000000000e+001 7.500000000000e+000 0.000000000000e+000
          2.600000000000e+001 1.000000000000e+001 0.000000000000e+000
          2.600000000000e+001 1.250000000000e+001 0.000000000000e+000
          2.600000000000e+001 1.500000000000e+001 0.000000000000e+000
          2.600000000000e+001 1.750000000000e+001 0.000000000000e+000
          2.600000000000e+001 2.000000000000e+001 0.000000000000e+000
          2.800000000000e+001 0.000000000000e+000 0.000000000000e+000
          2.800000000000e+001 2.500000000000e+000 0.000000000000e+000
          2.800000000000e+001 5.000000000000e+000 0.000000000000e+000
          2.800000000000e+001 7.500000000000e+000 0.000000000000e+000
          2.800000000000e+001 1.000000000000e+001 0.000000000000e+000
          2.800000000000e+001 1.250000000000e+001 0.000000000000e+000
          2.800000000000e+001 1.500000000000e+001 0.000000000000e+000
          2.800000000000e+001 1.750000000000e+001 0.000000000000e+000
          2.800000000000e+001 2.000000000000e+001 0.000000000000e+000
          3.000000000000e+001 0.000000000000e+000 0.000000000000e+000
          3.000000000000e+001 2.500000000000e+000 0.000000000000e+000
          3.000000000000e+001 5.000000000000e+000 0.000000000000e+000
          3.000000000000e+001 7.500000000000e+000 0.000000000000e+000
[...]
      <PointData Scalars="LIQUID_PRESSURE">
        <DataArray type="Float64" Name="LIQUID_PRESSURE" format="ascii">
          1.114014712865e+006 1.114020672824e+006 1.114020672840e+006 1.114014712764e+006 1.114020672869e+006 1.114014712695e+006 1.114020672829e+006 1.114014712797e+006 1.114020672852e+006 1.114014712771e+006 1.114020672899e+006 1.114014712630e+006 1.114020672879e+006 1.114014712605e+006 1.114020672894e+006 1.114014712548e+006 1.114020672929e+006 1.114014712467e+006 1.113967048384e+006 1.113967048432e+006 1.113967048460e+006 1.113967048406e+006 1.113967048418e+006 1.113967048481e+006 1.113967048458e+006 1.113967048482e+006 1.113967048524e+006 1.113853542652e+006 1.113853542687e+006 1.113853542706e+006 1.113853542666e+006 1.113853542675e+006 1.113853542707e+006 1.113853542687e+006 1.113853542694e+006 1.113853542714e+006 1.113772392398e+006 1.113772392417e+006 1.113772392434e+006 1.113772392402e+006 1.113772392401e+006 1.113772392417e+006 1.113772392402e+006 1.113772392397e+006 1.113772392410e+006 1.113596415527e+006 1.113596415541e+006 1.113596415547e+006 1.113596415535e+006 1.113596415525e+006 1.113596415542e+006 1.113596415530e+006 1.113596415524e+006 1.113596415533e+006 1.113399128051e+006 1.113399128060e+006 1.113399128066e+006 1.113399128057e+006 1.113399128055e+006 1.113399128060e+006 1.113399128056e+006 1.113399128055e+006 1.113399128056e+006 1.113209848540e+006 1.113209848542e+006 1.113209848546e+006 1.113209848539e+006 1.113209848543e+006 1.113209848542e+006 1.113209848542e+006 1.113209848540e+006 1.113209848541e+006 1.112921348908e+006 1.112921348906e+006 1.112921348908e+006 1.112921348905e+006 1.112921348907e+006 1.112921348909e+006 1.112921348908e+006 1.112921348911e+006 1.112921348906e+006 1.112655237122e+006 1.112655237121e+006 1.112655237122e+006 1.112655237121e+006 1.112655237121e+006 1.112655237120e+006 1.112655237121e+006 1.112655237120e+006 1.112655237122e+006 1.112330409684e+006 1.112330409688e+006 1.112330409687e+006 1.112330409686e+006 1.112330409687e+006 1.112330409686e+006 1.112330409686e+006 1.112330409686e+006 1.112330409687e+006 1.111961937475e+006 1.111961937478e+006 1.111961937476e+006 1.111961937477e+006 1.111961937474e+006 1.111961937475e+006 1.111961937480e+006 1.111961937477e+006 1.111961937480e+006 1.111588929050e+006 1.111588929050e+006 1.111588929051e+006 1.111588929050e+006 1.111588929049e+006 1.111588929052e+006 1.111588929049e+006 1.111588929050e+006 1.111588929050e+006 1.111145771439e+006 1.111145771438e+006 1.111145771441e+006 1.111145771441e+006 1.111145771442e+006 1.111145771441e+006 1.111145771440e+006 1.111145771439e+006 1.111145771439e+006 1.110711246894e+006 1.110711246897e+006 1.110711246894e+006 1.110711246897e+006 1.110711246896e+006 1.110711246896e+006 1.110711246897e+006 1.110711246897e+006 1.110711246895e+006 1.110211217923e+006 1.110211217922e+006 1.110211217924e+006 1.110211217922e+006 1.110211217924e+006 1.110211217922e+006 1.110211217923e+006 1.110211217922e+006 1.110211217922e+006 1.109694465744e+006 1.109694465741e+006 1.109694465741e+006 1.109694465741e+006 1.109694465739e+006 1.109694465743e+006 1.109694465741e+006 1.109694465741e+006 1.109694465740e+006 1.109146501237e+006 1.109146501238e+006 1.109146501237e+006 1.109146501239e+006 1.109146501237e+006 1.109146501237e+006 1.109146501238e+006 1.109146501239e+006 1.109146501238e+006 1.108537446873e+006 1.108537446873e+006 1.108537446872e+006 1.108537446872e+006 1.108537446873e+006 1.108537446874e+006 1.108537446873e+006 1.108537446872e+006 1.108537446874e+006 1.107941656325e+006 1.107941656324e+006 1.107941656324e+006 1.107941656324e+006 1.107941656324e+006 1.107941656324e+006 1.107941656324e+006 1.107941656323e+006 1.107941656325e+006 1.107271036230e+006 1.107271036228e+006 1.107271036230e+006 1.107271036229e+006 1.107271036229e+006 1.107271036230e+006 1.107271036229e+006 1.107271036229e+006 1.107271036228e+006 1.106594746923e+006 1.106594746923e+006 1.106594746924e+006 1.106594746922e+006 1.106594746923e+006 1.106594746922e+006 1.106594746923e+006 1.106594746924e+006 1.106594746922e+006 1.105877075403e+006 1.105877075401e+006 1.105877075402e+006 1.105877075403e+006 1.105877075402e+006 1.105877075403e+006 1.105877075403e+006 1.105877075402e+006 1.105877075403e+006 1.105126958859e+006 1.105126958860e+006 1.105126958859e+006 1.105126958859e+006 1.105126958859e+006 1.105126958860e+006 1.105126958859e+006 1.105126958859e+006 1.105126958860e+006 1.104352856535e+006 1.104352856534e+006 1.104352856534e+006 1.104352856533e+006 1.104352856535e+006 1.104352856533e+006 1.104352856535e+006 1.104352856534e+006 1.104352856534e+006 1.103523396137e+006 1.103523396137e+006 1.103523396137e+006 1.103523396138e+006 1.103523396137e+006 1.103523396138e+006 1.103523396137e+006 1.103523396138e+006 1.103523396137e+006 1.102692615244e+006 1.102692615243e+006 1.102692615244e+006 1.102692615244e+006 1.102692615244e+006 1.102692615244e+006 1.102692615243e+006 1.102692615244e+006 1.102692615243e+006 1.101807454857e+006 1.101807454858e+006 1.101807454858e+006 1.101807454858e+006 1.101807454858e+006 1.101807454858e+006 1.101807454858e+006 1.101807454858e+006 1.101807454859e+006 1.100897717386e+006 1.100897717387e+006 1.100897717386e+006 1.100897717386e+006 1.100897717386e+006 1.100897717386e+006 1.100897717386e+006 1.100897717385e+006 1.100897717386e+006 1.099974864239e+006 1.099974864239e+006 1.099974864239e+006 1.099974864239e+006 1.099974864239e+006 1.099974864239e+006 1.099974864239e+006 1.099974864239e+006 1.099974864239e+006 1.098985305230e+006 1.098985305230e+006 1.098985305230e+006 1.098985305230e+006 1.098985305230e+006 1.098985305230e+006 1.098985305230e+006 1.098985305230e+006 1.098985305230e+006 1.097997699034e+006 1.097997699034e+006 1.097997699034e+006 1.097997699034e+006 1.097997699034e+006 1.097997699034e+006 1.097997699034e+006 1.097997699034e+006 1.097997699034e+006 1.096965536955e+006 1.096965536955e+006 1.096965536955e+006 1.096965536955e+006 1.096965536955e+006 1.096965536955e+006 1.096965536955e+006 1.096965536955e+006 1.096965536955e+006 1.095888815536e+006 1.095888815536e+006 1.095888815536e+006 1.095888815536e+006 1.095888815536e+006 1.095888815536e+006 1.095888815536e+006 1.095888815536e+006 1.095888815536e+006 1.094815088344e+006 1.094815088344e+006 1.094815088344e+006 1.094815088344e+006 1.094815088344e+006 1.094815088344e+006 1.094815088344e+006 1.094815088343e+006 1.094815088344e+006 1.093680139514e+006 1.093680139515e+006 1.093680139515e+006 1.093680139515e+006 1.093680139514e+006 1.093680139514e+006 1.093680139514e+006 1.093680139514e+006 1.093680139514e+006 1.092526714943e+006 1.092526714943e+006 1.092526714944e+006 1.092526714943e+006 1.092526714944e+006 1.092526714943e+006 1.092526714943e+006 1.092526714944e+006 1.092526714943e+006 1.091355777232e+006 1.091355777232e+006 1.091355777232e+006 1.091355777232e+006 1.091355777232e+006 1.091355777232e+006 1.091355777232e+006 1.091355777232e+006 1.091355777232e+006 1.090134365032e+006 1.090134365032e+006 1.090134365032e+006 1.090134365032e+006 1.090134365032e+006 1.090134365032e+006 1.090134365032e+006 1.090134365032e+006 1.090134365032e+006 1.088897042693e+006 1.088897042693e+006 1.088897042693e+006 1.088897042694e+006 1.088897042693e+006 1.088897042693e+006 1.088897042693e+006 1.088897042693e+006 1.088897042693e+006 1.087640911121e+006 1.087640911121e+006 1.087640911121e+006 1.087640911121e+006 1.087640911121e+006 1.087640911121e+006 1.087640911121e+006 1.087640911121e+006 1.087640911121e+006 1.086322044021e+006 1.086322044021e+006 1.086322044021e+006 1.086322044021e+006 1.086322044021e+006 1.086322044021e+006 1.086322044021e+006 1.086322044021e+006 1.086322044021e+006 1.085001503909e+006 1.085001503909e+006 1.085001503909e+006 1.085001503909e+006 1.085001503909e+006 1.085001503909e+006 1.085001503909e+006 1.085001503909e+006 1.085001503909e+006 1.083651679239e+006 1.083651679238e+006 1.083651679238e+006 1.083651679238e+006 1.083651679238e+006 1.083651679238e+006 1.083651679238e+006 1.083651679238e+006 1.083651679238e+006 1.082273352945e+006 1.082273352946e+006 1.082273352946e+006 1.082273352946e+006 1.082273352946e+006 1.082273352946e+006 1.082273352946e+006 1.082273352946e+006 1.082273352946e+006 1.080871741936e+006 1.080871741936e+006 1.080871741936e+006 1.080871741935e+006 1.080871741936e+006 1.080871741935e+006 1.080871741935e+006 1.080871741936e+006 1.080871741935e+006 1.079414255813e+006 1.079414255813e+006 1.079414255813e+006 1.079414255812e+006 1.079414255812e+006 1.079414255812e+006 1.079414255812e+006 1.079414255812e+006 1.079414255812e+006 1.077943387917e+006 1.077943387917e+006 1.077943387917e+006 1.077943387917e+006 1.077943387917e+006 1.077943387917e+006 1.077943387917e+006 1.077943387917e+006 1.077943387917e+006 1.076494138314e+006 1.076494138314e+006 1.076494138314e+006 1.076494138314e+006 1.076494138314e+006 1.076494138314e+006 1.076494138314e+006 1.076494138314e+006 1.076494138314e+006 1.074969065666e+006 1.074969065666e+006 1.074969065666e+006 1.074969065666e+006 1.074969065666e+006 1.074969065666e+006 1.074969065666e+006 1.074969065666e+006 1.074969065666e+006 1.073418731407e+006 1.073418731407e+006 1.073418731407e+006 1.073418731407e+006 1.073418731407e+006 1.073418731407e+006 1.073418731407e+006 1.073418731407e+006 1.073418731407e+006 1.071840908672e+006 1.071840908671e+006 1.071840908671e+006 1.071840908672e+006 1.071840908672e+006 1.071840908672e+006 1.071840908671e+006 1.071840908671e+006 1.071840908671e+006 1.070236473742e+006 1.070236473741e+006 1.070236473742e+006 1.070236473741e+006 1.070236473742e+006 1.070236473741e+006 1.070236473741e+006 1.070236473742e+006 1.070236473742e+006 1.068647909301e+006 1.068647909301e+006 1.068647909300e+006 1.068647909301e+006 1.068647909301e+006 1.068647909301e+006 1.068647909301e+006 1.068647909301e+006 1.068647909301e+006 1.067036599440e+006 1.067036599439e+006 1.067036599439e+006 1.067036599439e+006 1.067036599439e+006 1.067036599439e+006 1.067036599439e+006 1.067036599440e+006 1.067036599440e+006 1.065381311013e+006 1.065381311013e+006 1.065381311013e+006 1.065381311013e+006 1.065381311013e+006 1.065381311013e+006 1.065381311013e+006 1.065381311013e+006 1.065381311013e+006 1.063690454882e+006 1.063690454883e+006 1.063690454883e+006 1.063690454882e+006 1.063690454883e+006 1.063690454883e+006 1.063690454883e+006 1.063690454883e+006 1.063690454883e+006 1.061987316700e+006 1.061987316701e+006 1.061987316701e+006 1.061987316701e+006 1.061987316701e+006 1.061987316701e+006 1.061987316702e+006 1.061987316701e+006 1.061987316701e+006 1.060229987728e+006 1.060229987728e+006 1.060229987730e+006 1.060229987730e+006 1.060229987729e+006 1.060229987729e+006 1.060229987730e+006 1.060229987731e+006 1.060229987730e+006 1.058455228164e+006 1.058455228164e+006 1.058455228164e+006 1.058455228166e+006 1.058455228165e+006 1.058455228165e+006 1.058455228166e+006 1.058455228167e+006 1.058455228166e+006 1.056754267645e+006 1.056754267645e+006 1.056754267645e+006 1.056754267645e+006 1.056754267645e+006 1.056754267645e+006 1.056754267646e+006 1.056754267646e+006 1.056754267646e+006 1.055061942394e+006 1.055061942393e+006 1.055061942393e+006 1.055061942391e+006 1.055061942391e+006 1.055061942390e+006 1.055061942389e+006 1.055061942390e+006 1.055061942390e+006 1.053219957095e+006 1.053219957095e+006 1.053219957094e+006 1.053219957091e+006 1.053219957090e+006 1.053219957088e+006 1.053219957087e+006 1.053219957087e+006 1.053219957086e+006 1.051331564305e+006 1.051331564305e+006 1.051331564307e+006 1.051331564311e+006 1.051331564314e+006 1.051331564315e+006 1.051331564315e+006 1.051331564315e+006 1.051331564315e+006 1.049649627956e+006 1.049649627958e+006 1.049649627960e+006 1.049649627964e+006 1.049649627968e+006 1.049649627970e+006 1.049649627971e+006 1.049649627972e+006 1.049649627972e+006 1.047650635326e+006 1.047650635327e+006 1.047650635321e+006 1.047650635304e+006 1.047650635292e+006 1.047650635287e+006 1.047650635284e+006 1.047650635281e+006 1.047650635280e+006 1.046013468265e+006 1.046013468264e+006 1.046013468259e+006 1.046013468271e+006 1.046013468269e+006 1.046013468270e+006 1.046013468271e+006 1.046013468272e+006 1.046013468272e+006 1.044008640262e+006 1.044008640258e+006 1.044008640257e+006 1.044008640271e+006 1.044008640275e+006 1.044008640276e+006 1.044008640278e+006 1.044008640279e+006 1.044008640280e+006 1.042177285339e+006 1.042177285336e+006 1.042177285334e+006 1.042177285341e+006 1.042177285343e+006 1.042177285344e+006 1.042177285346e+006 1.042177285346e+006 1.042177285347e+006 1.040459152161e+006 1.040459152160e+006 1.040459152158e+006 1.040459152162e+006 1.040459152162e+006 1.040459152162e+006 1.040459152163e+006 1.040459152163e+006 1.040459152164e+006 1.038722424491e+006 1.038722424489e+006 1.038722424489e+006 1.038722424490e+006 1.038722424490e+006 1.038722424490e+006 1.038722424491e+006 1.038722424491e+006 1.038722424491e+006 1.037031853731e+006 1.037031853731e+006 1.037031853730e+006 1.037031853730e+006 1.037031853732e+006 1.037031853732e+006 1.037031853733e+006 1.037031853732e+006 1.037031853732e+006 1.035349049203e+006 1.035349049203e+006 1.035349049203e+006 1.035349049203e+006 1.035349049203e+006 1.035349049204e+006 1.035349049204e+006 1.035349049205e+006 1.035349049205e+006 1.033922149385e+006 1.033922149384e+006 1.033922149385e+006 1.033922149384e+006 1.033922149385e+006 1.033922149385e+006 1.033922149386e+006 1.033922149386e+006 1.033922149386e+006 1.032665450650e+006 1.032665450650e+006 1.032665450650e+006 1.032665450651e+006 1.032665450651e+006 1.032665450651e+006 1.032665450651e+006 1.032665450651e+006 1.032665450651e+006 1.031408783790e+006 1.031408783789e+006 1.031408783789e+006 1.031408783789e+006 1.031408783789e+006 1.031408783790e+006 1.031408783789e+006 1.031408783789e+006 1.031408783790e+006 1.030152149786e+006 1.030152149786e+006 1.030152149785e+006 1.030152149785e+006 1.030152149785e+006 1.030152149785e+006 1.030152149786e+006 1.030152149785e+006 1.030152149785e+006 1.028895548909e+006 1.028895548908e+006 1.028895548908e+006 1.028895548908e+006 1.028895548908e+006 1.028895548908e+006 1.028895548908e+006 1.028895548908e+006 1.028895548908e+006 1.027638980723e+006 1.027638980723e+006 1.027638980723e+006 1.027638980723e+006 1.027638980723e+006 1.027638980723e+006 1.027638980723e+006 1.027638980723e+006 1.027638980723e+006 1.026382444311e+006 1.026382444311e+006 1.026382444311e+006 1.026382444311e+006 1.026382444311e+006 1.026382444311e+006 1.026382444311e+006 1.026382444311e+006 1.026382444311e+006 1.025125938465e+006 1.025125938465e+006 1.025125938466e+006 1.025125938465e+006 1.025125938465e+006 1.025125938465e+006 1.025125938465e+006 1.025125938465e+006 1.025125938465e+006 1.023869461829e+006 1.023869461829e+006 1.023869461829e+006 1.023869461829e+006 1.023869461829e+006 1.023869461829e+006 1.023869461829e+006 1.023869461828e+006 1.023869461828e+006 1.022613012972e+006 1.022613012972e+006 1.022613012972e+006 1.022613012972e+006 1.022613012972e+006 1.022613012972e+006 1.022613012972e+006 1.022613012972e+006 1.022613012972e+006 1.021356590439e+006 1.021356590439e+006 1.021356590439e+006 1.021356590439e+006 1.021356590439e+006 1.021356590439e+006 1.021356590439e+006 1.021356590438e+006 1.021356590439e+006 1.020100192762e+006 1.020100192762e+006 1.020100192762e+006 1.020100192762e+006 1.020100192762e+006 1.020100192762e+006 1.020100192762e+006 1.020100192762e+006 1.020100192761e+006 1.018843818472e+006 1.018843818472e+006 1.018843818472e+006 1.018843818472e+006 1.018843818472e+006 1.018843818472e+006 1.018843818472e+006 1.018843818471e+006 1.018843818472e+006 1.017587466100e+006 1.017587466100e+006 1.017587466100e+006 1.017587466099e+006 1.017587466099e+006 1.017587466099e+006 1.017587466099e+006 1.017587466099e+006 1.017587466099e+006 1.016331134172e+006 1.016331134172e+006 1.016331134172e+006 1.016331134171e+006 1.016331134171e+006 1.016331134171e+006 1.016331134171e+006 1.016331134171e+006 1.016331134171e+006 1.015074821213e+006 1.015074821213e+006 1.015074821213e+006 1.015074821213e+006 1.015074821213e+006 1.015074821213e+006 1.015074821212e+006 1.015074821212e+006 1.015074821212e+006 1.013818525741e+006 1.013818525742e+006 1.013818525741e+006 1.013818525741e+006 1.013818525741e+006 1.013818525741e+006 1.013818525741e+006 1.013818525741e+006 1.013818525741e+006 1.012562246270e+006 1.012562246270e+006 1.012562246270e+006 1.012562246270e+006 1.012562246269e+006 1.012562246269e+006 1.012562246269e+006 1.012562246269e+006 1.012562246269e+006 1.011305981304e+006 1.011305981304e+006 1.011305981304e+006 1.011305981304e+006 1.011305981304e+006 1.011305981304e+006 1.011305981304e+006 1.011305981303e+006 1.011305981303e+006 1.010049729343e+006 1.010049729343e+006 1.010049729343e+006 1.010049729343e+006 1.010049729343e+006 1.010049729343e+006 1.010049729343e+006 1.010049729343e+006 1.010049729343e+006 1.008793488880e+006 1.008793488880e+006 1.008793488880e+006 1.008793488880e+006 1.008793488880e+006 1.008793488880e+006 1.008793488880e+006 1.008793488880e+006 1.008793488880e+006 1.007537258404e+006 1.007537258404e+006 1.007537258403e+006 1.007537258403e+006 1.007537258403e+006 1.007537258403e+006 1.007537258403e+006 1.007537258403e+006 1.007537258403e+006 1.006281036395e+006 1.006281036395e+006 1.006281036395e+006 1.006281036395e+006 1.006281036395e+006 1.006281036395e+006 1.006281036395e+006 1.006281036395e+006 1.006281036395e+006 1.005024821333e+006 1.005024821333e+006 1.005024821333e+006 1.005024821333e+006 1.005024821333e+006 1.005024821333e+006 1.005024821333e+006 1.005024821333e+006 1.005024821333e+006 1.003768611692e+006 1.003768611692e+006 1.003768611692e+006 1.003768611692e+006 1.003768611692e+006 1.003768611692e+006 1.003768611692e+006 1.003768611692e+006 1.003768611692e+006 1.002512405944e+006 1.002512405944e+006 1.002512405944e+006 1.002512405944e+006 1.002512405944e+006 1.002512405944e+006 1.002512405944e+006 1.002512405944e+006 1.002512405944e+006 1.001256202557e+006 1.001256202557e+006 1.001256202557e+006 1.001256202557e+006 1.001256202557e+006 1.001256202557e+006 1.001256202557e+006 1.001256202557e+006 1.001256202557e+006 1.000000000000e+006 1.000000000000e+006 1.000000000000e+006 1.000000000000e+006 1.000000000000e+006 1.000000000000e+006 1.000000000000e+006 1.000000000000e+006 1.000000000000e+006 
        </DataArray>
        <DataArray type="Float64" Name="MOLAR_FRACTION" format="ascii">