<?xml version="1.0"?>
<VTKFile type="UnstructuredGrid" version="0.1" byte_order="LittleEndian">
  <UnstructuredGrid>
    <Piece NumberOfPoints="909" NumberOfCells="800">
      <Points>
        <DataArray type="Float64" NumberOfComponents="3" format="ascii">
          0.000000000000e+000 0.000000000000e+000 0.000000000000e+000
          2.000000000000e+000 0.000000000000e+000 0.000000000000e+000
          2.000000000000e+000 2.500000000000e+000 0.000000000000e+000
          0.000000000000e+000 2.500000000000e+000 0.000000000000e+000
          2.000000000000e+000 5.000000000000e+000 0.000000000000e+000
          0.000000000000e+000 5.000000000000e+000 0.000000000000e+000
          2.000000000000e+000 7.500000000000e+000 0.000000000000e+000
          0.000000000000e+000 7.500000000000e+000 0.000000000000e+000
          2.000000000000e+000 1.000000000000e+001 0.000000000000e+000
          0.000000000000e+000 1.000000000000e+001 0.000000000000e+000
          2.000000000000e+000 1.250000000000e+001 0.000000000000e+000
          0.000000000000e+000 1.250000000000e+001 0.000000000000e+000
          2.000000000000e+000 1.500000000000e+001 0.000000000000e+000
          0.000000000000e+000 1.500000000000e+001 0.000000000000e+000
          2.000000000000e+000 1.750000000000e+001 0.000000000000e+000
          0.000000000000e+000 1.750000000000e+001 0.000000000000e+000
          2.000000000000e+000 2.000000000000e+001 0.000000000000e+000
          0.000000000000e+000 2.000000000000e+001 0.000000000000e+000
          4.000000000000e+000 0.000000000000e+000 0.000000000000e+000
          4.000000000000e+000 2.500000000000e+000 0.000000000000e+000
          4.000000000000e+000 5.000000000000e+000 0.000000000000e+000
          4.000000000000e+000 7.500000000000e+000 0.000000000000e+000
          4.000000000000e+000 1.000000000000e+001 0.000000000000e+000
          4.000000000000e+000 1.250000000000e+001 0.000000000000e+000
          4.000000000000e+000 1.500000000000e+001 0.000000000000e+000
          4.000000000000e+000 1.750000000000e+001 0.000000000000e+000
          4.000000000000e+000 2.000000000000e+001 0.000000000000e+000
          6.000000000000e+000 0.000000000000e+000 0.000000000000e+000
          6.000000000000e+000 2.500000000000e+000 0.000000000000e+000
          6.000000000000e+000 5.000000000000e+000 0.000000000000e+000
          6.000000000000e+000 7.500000000000e+000 0.000000000000e+000
          6.000000000000e+000 1.000000000000e+001 0.000000000000e+000
          6.000000000000e+000 1.250000000000e+001 0.000000000000e+000
          6.000000000000e+000 1.500000000000e+001 0.000000000000e+000
          6.000000000000e+000 1.750000000000e+001 0.000000000000e+000
          6.000000000000e+000 2.000000000000e+001 0.000000000000e+000
          8.000000000000e+000 0.000000000000e+000 0.000000000000e+000
          8.000000000000e+000 2.500000000000e+000 0.000000000000e+000
          8.000000000000e+000 5.000000000000e+000 0.000000000000e+000
          8.000000000000e+000 7.500000000000e+000 0.000000000000e+000
          8.000000000000e+000 1.000000000000e+001 0.000000000000e+000
          8.000000000000e+000 1.250000000000e+001 0.000000000000e+000
          8.000000000000e+000 1.500000000000e+001 0.000000000000e+000
          8.000000000000e+000 1.750000000000e+001 0.000000000000e+000
          8.000000000000e+000 2.000000000000e+001 0.000000000000e+000
          1.000000000000e+001 0.000000000000e+000 0.000000000000e+000
          1.000000000000e+001 2.500000000000e+000 0.000000000000e+000
          1.000000000000e+001 5.000000000000e+000 0.000000000000e+000
          1.000000000000e+001 7.500000000000e+000 0.000000000000e+000
          1.000000000000e+001 1.000000000000e+001 0.000000000000e+000
          1.000000000000e+001 1.250000000000e+001 0.000000000000e+000
          1.000000000000e+001 1.500000000000e+001 0.000000000000e+000
          1.000000000000e+001 1.750000000000e+001 0.000000000000e+000
          1.000000000000e+001 2.000000000000e+001 0.000000000000e+000
          1.200000000000e+001 0.000000000000e+000 0.000000000000e+000
          1.200000000000e+001 2.500000000000e+000 0.000000000000e+000
          1.200000000000e+001 5.000000000000e+000 0.000000000000e+000
          1.200000000000e+001 7.500000000000e+000 0.000000000000e+000
          1.200000000000e+001 1.000000000000e+001 0.000000000000e+000
          1.200000000000e+001 1.250000000000e+001 0.000000000000e+000
          1.200000000000e+001 1.500000000000e+001 0.000000000000e+000
          1.200000000000e+001 1.750000000000e+001 0.000000000000e+000
          1.200000000000e+001 2.000000000000e+001 0.000000000000e+000
          1.400000000000e+001 0.000000000000e+000 0.000000000000e+000
          1.400000000000e+001 2.500000000000e+000 0.000000000000e+000
          1.400000000000e+001 5.000000000000e+000 0.000000000000e+000
          1.400000000000e+001 7.500000000000e+000 0.000000000000e+000
          1.400000000000e+001 1.000000000000e+001 0.000000000000e+000
          1.400000000000e+001 1.250000000000e+001 0.000000000000e+000
          1.400000000000e+001 1.500000000000e+001 0.000000000000e+000
          1.400000000000e+001 1.750000000000e+001 0.000000000000e+000
          1.400000000000e+001 2.000000000000e+001 0.000000000000e+000
          1.600000000000e+001 0.000000000000e+000 0.000000000000e+000
          1.600000000000e+001 2.500000000000e+000 0.000000000000e+000
          1.600000000000e+001 5.000000000000e+000 0.000000000000e+000
          1.600000000000e+001 7.500000000000e+000 0.000000000000e+000
          1.600000000000e+001 1.000000000000e+001 0.000000000000e+000
          1.600000000000e+001 1.250000000000e+001 0.000000000000e+000
          1.600000000000e+001 1.500000000000e+001 0.000000000000e+000
          1.600000000000e+001 1.750000000000e+001 0.000000000000e+000
          1.600000000000e+001 2.000000000000e+001 0.000000000000e+000
          1.800000000000e+001 0.000000000000e+000 0.000000000000e+000
          1.800000000000e+001 2.500000000000e+000 0.000000000000e+000
          1.800000000000e+001 5.000000000000e+000 0.000000000000e+000
          1.800000000000e+001 7.500000000000e+000 0.000000000000e+000
          1.800000000000e+001 1.000000000000e+001 0.000000000000e+000
          1.800000000000e+001 1.250000000000e+001 0.000000000000e+000
          1.800000000000e+001 1.500000000000e+001 0.000000000000e+000
          1.800000000000e+001 1.750000000000e+001 0.000000000000e+000
          1.800000000000e+001 2.000000000000e+001 0.000000000000e+000
          2.000000000000e+001 0.000000000000e+000 0.000000000000e+000
          2.000000000000e+001 2.500000000000e+000 0.000000000000e+000
          2.000000000000e+001 5.000000000000e+000 0.000000000000e+000
          2.000000000000e+001 7.500000000000e+000 0.000000000000e+000
          2.000000000000e+001 1.000000000000e+001 0.000000000000e+000
          2.000000000000e+001 1.250000000000e+001 0.000000000000e+000
          2.000000000000e+001 1.500000000000e+001 0.000000000000e+000
          2.000000000000e+001 1.750000000000e+001 0.000000000000e+000
          2.000000000000e+001 2.000000000000e+001 0.000000000000e+000
          2.200000000000e+001 0.000000000000e+000 0.000000000000e+000
          2.200000000000e+001 2.500000000000e+000 0.000000000000e+000
          2.200000000000e+001 5.000000000000e+000 0.000000000000e+000
          2.200000000000e+001 7.500000000000e+000 0.000000000000e+000
          2.200000000000e+001 1.000000000000e+001 0.000000000000e+000
          2.200000000000e+001 1.250000000000e+001 0.000000000000e+000
          2.200000000000e+001 1.500000000000e+001 0.000000000000e+000
          2.200000000000e+001 1.750000000000e+001 0.000000000000e+000
          2.200000000000e+001 2.000000000000e+001 0.000000000000e+000
          2.400000000000e+001 0.000000000000e+000 0.000000000000e+000
          2.400000000000e+001 2.500000000000e+000 0.000000000000e+000
          2.400000000000e+001 5.000000000000e+000 0.000000000000e+000
          2.400000000000e+001 7.500000000000e+000 0.000000000000e+000
          2.400000000000e+001 1.000000000000e+001 0.000000000000e+000
          2.400000000000e+001 1.250000000000e+001 0.000000000000e+000
          2.400000000000e+001 1.500000000000e+001 0.000000000000e+000
          2.400000000000e+001 1.750000000000e+001 0.000000000000e+000
          2.400000000000e+001 2.000000000000e+001 0.000000000000e+000
          2.600000000000e+001 0.000000000000e+000 0.000000000000e+000
          2.600000000000e+001 2.500000000000e+000 0.000000000000e+000
          2.600000000000e+001 5.000000000000e+000 0.000000000000e+000
          2.600000000000e+001 7.500000000000e+000 0.000000000000e+000
          2.600000000000e+001 1.000000000000e+001 0.000000000000e+000
          2.600000000000e+001 1.250000000000e+001 0.000000000000e+000
          2.600000000000e+001 1.500000000000e+001 0.000000000000e+000
          2.600000000000e+001 1.750000000000e+001 0.000000000000e+000
          2.600000000000e+001 2.000000000000e+001 0.000000000000e+000
          2.800000000000e+001 0.000000000000e+000 0.000000000000e+000
          2.800000000000e+001 2.500000000000e+000 0.000000000000e+000
          2.800000000000e+001 5.000000000000e+000 0.000000000000e+000
          2.800000000000e+001 7.500000000000e+000 0.000000000000e+000
          2.800000000000e+001 1.000000000000e+001 0.000000000000e+000
          2.800000000000e+001 1.250000000000e+001 0.000000000000e+000
          2.800000000000e+001 1.500000000000e+001 0.000000000000e+000
          2.800000000000e+001 1.750000000000e+001 0.000000000000e+000
          2.800000000000e+001 2.000000000000e+001 0.000000000000e+000
          3.000000000000e+001 0.000000000000e+000 0.000000000000e+000
          3.000000000000e+001 2.500000000000e+000 0.000000000000e+000
          3.000000000000e+001 5.000000000000e+000 0.000000000000e+000
          3.000000000000e+001 7.500000000000e+000 0.000000000000e+000
[...]
      <PointData Scalars="LIQUID_PRESSURE">
        <DataArray type="Float64" Name="LIQUID_PRESSURE" format="ascii">
          1.009033796097e+006 1.009044954581e+006 1.009044954592e+006 1.009033796041e+006 1.009044954609e+006 1.009033795989e+006 1.009044954575e+006 1.009033796055e+006 1.009044954594e+006 1.009033796042e+006 1.009044954630e+006 1.009033795960e+006 1.009044954629e+006 1.009033795971e+006 1.009044954640e+006 1.009033795943e+006 1.009044954659e+006 1.009033795884e+006 1.009042482478e+006 1.009042482505e+006 1.009042482511e+006 1.009042482487e+006 1.009042482489e+006 1.009042482514e+006 1.009042482495e+006 1.009042482504e+006 1.009042482524e+006 1.009010292427e+006 1.009010292439e+006 1.009010292442e+006 1.009010292427e+006 1.009010292429e+006 1.009010292440e+006 1.009010292431e+006 1.009010292423e+006 1.009010292428e+006 1.009024167791e+006 1.009024167798e+006 1.009024167795e+006 1.009024167785e+006 1.009024167783e+006 1.009024167790e+006 1.009024167779e+006 1.009024167776e+006 1.009024167782e+006 1.008995350521e+006 1.008995350526e+006 1.008995350520e+006 1.008995350516e+006 1.008995350511e+006 1.008995350516e+006 1.008995350505e+006 1.008995350510e+006 1.008995350519e+006 1.008965093572e+006 1.008965093570e+006 1.008965093573e+006 1.008965093571e+006 1.008965093569e+006 1.008965093566e+006 1.008965093560e+006 1.008965093566e+006 1.008965093568e+006 1.008967000541e+006 1.008967000535e+006 1.008967000537e+006 1.008967000540e+006 1.008967000533e+006 1.008967000529e+006 1.008967000530e+006 1.008967000529e+006 1.008967000536e+006 1.008914088849e+006 1.008914088839e+006 1.008914088846e+006 1.008914088846e+006 1.008914088836e+006 1.008914088834e+006 1.008914088840e+006 1.008914088843e+006 1.008914088837e+006 1.008898969881e+006 1.008898969875e+006 1.008898969881e+006 1.008898969879e+006 1.008898969875e+006 1.008898969871e+006 1.008898969881e+006 1.008898969876e+006 1.008898969876e+006 1.008864800149e+006 1.008864800162e+006 1.008864800159e+006 1.008864800158e+006 1.008864800156e+006 1.008864800155e+006 1.008864800163e+006 1.008864800162e+006 1.008864800156e+006 1.008817507440e+006 1.008817507444e+006 1.008817507442e+006 1.008817507442e+006 1.008817507437e+006 1.008817507429e+006 1.008817507448e+006 1.008817507450e+006 1.008817507442e+006 1.008793039133e+006 1.008793039127e+006 1.008793039136e+006 1.008793039127e+006 1.008793039127e+006 1.008793039130e+006 1.008793039128e+006 1.008793039130e+006 1.008793039139e+006 1.008731973817e+006 1.008731973811e+006 1.008731973804e+006 1.008731973806e+006 1.008731973807e+006 1.008731973805e+006 1.008731973808e+006 1.008731973804e+006 1.008731973808e+006 1.008700279130e+006 1.008700279125e+006 1.008700279117e+006 1.008700279124e+006 1.008700279122e+006 1.008700279127e+006 1.008700279125e+006 1.008700279125e+006 1.008700279124e+006 1.008641231689e+006 1.008641231692e+006 1.008641231692e+006 1.008641231689e+006 1.008641231693e+006 1.008641231685e+006 1.008641231689e+006 1.008641231689e+006 1.008641231691e+006 1.008588450353e+006 1.008588450353e+006 1.008588450349e+006 1.008588450349e+006 1.008588450353e+006 1.008588450347e+006 1.008588450352e+006 1.008588450350e+006 1.008588450352e+006 1.008541821723e+006 1.008541821735e+006 1.008541821726e+006 1.008541821730e+006 1.008541821733e+006 1.008541821732e+006 1.008541821736e+006 1.008541821726e+006 1.008541821730e+006 1.008464269065e+006 1.008464269063e+006 1.008464269062e+006 1.008464269053e+006 1.008464269058e+006 1.008464269065e+006 1.008464269058e+006 1.008464269061e+006 1.008464269062e+006 1.008421488157e+006 1.008421488148e+006 1.008421488148e+006 1.008421488154e+006 1.008421488149e+006 1.008421488143e+006 1.008421488147e+006 1.008421488146e+006 1.008421488152e+006 1.008341784328e+006 1.008341784321e+006 1.008341784321e+006 1.008341784334e+006 1.008341784323e+006 1.008341784324e+006 1.008341784325e+006 1.008341784319e+006 1.008341784328e+006 1.008279783542e+006 1.008279783547e+006 1.008279783545e+006 1.008279783544e+006 1.008279783544e+006 1.008279783543e+006 1.008279783540e+006 1.008279783541e+006 1.008279783538e+006 1.008207741131e+006 1.008207741132e+006 1.008207741138e+006 1.008207741134e+006 1.008207741136e+006 1.008207741139e+006 1.008207741132e+006 1.008207741134e+006 1.008207741134e+006 1.008129695598e+006 1.008129695591e+006 1.008129695594e+006 1.008129695594e+006 1.008129695598e+006 1.008129695597e+006 1.008129695598e+006 1.008129695597e+006 1.008129695593e+006 1.008061349142e+006 1.008061349142e+006 1.008061349139e+006 1.008061349141e+006 1.008061349142e+006 1.008061349141e+006 1.008061349146e+006 1.008061349143e+006 1.008061349138e+006 1.007969582870e+006 1.007969582883e+006 1.007969582878e+006 1.007969582878e+006 1.007969582877e+006 1.007969582875e+006 1.007969582875e+006 1.007969582876e+006 1.007969582872e+006 1.007897412823e+006 1.007897412817e+006 1.007897412824e+006 1.007897412820e+006 1.007897412819e+006 1.007897412816e+006 1.007897412819e+006 1.007897412824e+006 1.007897412816e+006 1.007808710991e+006 1.007808710988e+006 1.007808710986e+006 1.007808710990e+006 1.007808710986e+006 1.007808710980e+006 1.007808710987e+006 1.007808710985e+006 1.007808710994e+006 1.007715173464e+006 1.007715173459e+006 1.007715173454e+006 1.007715173453e+006 1.007715173458e+006 1.007715173456e+006 1.007715173458e+006 1.007715173462e+006 1.007715173466e+006 1.007638102642e+006 1.007638102642e+006 1.007638102638e+006 1.007638102640e+006 1.007638102640e+006 1.007638102641e+006 1.007638102641e+006 1.007638102640e+006 1.007638102642e+006 1.007531474318e+006 1.007531474315e+006 1.007531474316e+006 1.007531474321e+006 1.007531474320e+006 1.007531474317e+006 1.007531474319e+006 1.007531474319e+006 1.007531474316e+006 1.007443321257e+006 1.007443321261e+006 1.007443321265e+006 1.007443321271e+006 1.007443321271e+006 1.007443321266e+006 1.007443321271e+006 1.007443321270e+006 1.007443321270e+006 1.007349642433e+006 1.007349642432e+006 1.007349642432e+006 1.007349642437e+006 1.007349642441e+006 1.007349642438e+006 1.007349642438e+006 1.007349642432e+006 1.007349642437e+006 1.007237597370e+006 1.007237597366e+006 1.007237597371e+006 1.007237597371e+006 1.007237597373e+006 1.007237597369e+006 1.007237597370e+006 1.007237597368e+006 1.007237597363e+006 1.007149115142e+006 1.007149115145e+006 1.007149115145e+006 1.007149115148e+006 1.007149115151e+006 1.007149115144e+006 1.007149115151e+006 1.007149115143e+006 1.007149115143e+006 1.007037975266e+006 1.007037975266e+006 1.007037975266e+006 1.007037975265e+006 1.007037975270e+006 1.007037975269e+006 1.007037975267e+006 1.007037975267e+006 1.007037975262e+006 1.006929770012e+006 1.006929770014e+006 1.006929770013e+006 1.006929770013e+006 1.006929770016e+006 1.006929770014e+006 1.006929770016e+006 1.006929770013e+006 1.006929770013e+006 1.006829339417e+006 1.006829339420e+006 1.006829339422e+006 1.006829339424e+006 1.006829339423e+006 1.006829339423e+006 1.006829339425e+006 1.006829339422e+006 1.006829339416e+006 1.006712472948e+006 1.006712472943e+006 1.006712472939e+006 1.006712472943e+006 1.006712472943e+006 1.006712472944e+006 1.006712472941e+006 1.006712472940e+006 1.006712472940e+006 1.006599501865e+006 1.006599501863e+006 1.006599501862e+006 1.006599501858e+006 1.006599501862e+006 1.006599501861e+006 1.006599501861e+006 1.006599501859e+006 1.006599501864e+006 1.006495275778e+006 1.006495275778e+006 1.006495275774e+006 1.006495275778e+006 1.006495275774e+006 1.006495275775e+006 1.006495275776e+006 1.006495275775e+006 1.006495275775e+006 1.006369418557e+006 1.006369418560e+006 1.006369418558e+006 1.006369418560e+006 1.006369418559e+006 1.006369418557e+006 1.006369418557e+006 1.006369418557e+006 1.006369418557e+006 1.006256307204e+006 1.006256307204e+006 1.006256307205e+006 1.006256307206e+006 1.006256307208e+006 1.006256307200e+006 1.006256307209e+006 1.006256307202e+006 1.006256307204e+006 1.006138500951e+006 1.006138500955e+006 1.006138500953e+006 1.006138500950e+006 1.006138500955e+006 1.006138500952e+006 1.006138500949e+006 1.006138500957e+006 1.006138500955e+006 1.006014167920e+006 1.006014167925e+006 1.006014167923e+006 1.006014167922e+006 1.006014167921e+006 1.006014167920e+006 1.006014167919e+006 1.006014167919e+006 1.006014167919e+006 1.005901063159e+006 1.005901063161e+006 1.005901063159e+006 1.005901063161e+006 1.005901063157e+006 1.005901063156e+006 1.005901063155e+006 1.005901063154e+006 1.005901063156e+006 1.005772751966e+006 1.005772751967e+006 1.005772751969e+006 1.005772751969e+006 1.005772751963e+006 1.005772751966e+006 1.005772751967e+006 1.005772751964e+006 1.005772751967e+006 1.005640152840e+006 1.005640152841e+006 1.005640152840e+006 1.005640152840e+006 1.005640152841e+006 1.005640152839e+006 1.005640152840e+006 1.005640152838e+006 1.005640152837e+006 1.005530862876e+006 1.005530862879e+006 1.005530862879e+006 1.005530862877e+006 1.005530862878e+006 1.005530862877e+006 1.005530862879e+006 1.005530862878e+006 1.005530862876e+006 1.005394208145e+006 1.005394208147e+006 1.005394208148e+006 1.005394208150e+006 1.005394208148e+006 1.005394208146e+006 1.005394208146e+006 1.005394208147e+006 1.005394208150e+006 1.005268910910e+006 1.005268910908e+006 1.005268910909e+006 1.005268910909e+006 1.005268910907e+006 1.005268910908e+006 1.005268910909e+006 1.005268910909e+006 1.005268910907e+006 1.005142912610e+006 1.005142912607e+006 1.005142912605e+006 1.005142912604e+006 1.005142912600e+006 1.005142912605e+006 1.005142912605e+006 1.005142912605e+006 1.005142912603e+006 1.005008073333e+006 1.005008073335e+006 1.005008073336e+006 1.005008073331e+006 1.005008073327e+006 1.005008073332e+006 1.005008073330e+006 1.005008073330e+006 1.005008073330e+006 1.004880671731e+006 1.004880671735e+006 1.004880671737e+006 1.004880671736e+006 1.004880671735e+006 1.004880671733e+006 1.004880671734e+006 1.004880671733e+006 1.004880671732e+006 1.004754094171e+006 1.004754094170e+006 1.004754094169e+006 1.004754094171e+006 1.004754094171e+006 1.004754094168e+006 1.004754094168e+006 1.004754094170e+006 1.004754094167e+006 1.004618028311e+006 1.004618028314e+006 1.004618028316e+006 1.004618028313e+006 1.004618028314e+006 1.004618028310e+006 1.004618028314e+006 1.004618028313e+006 1.004618028313e+006 1.004483809860e+006 1.004483809862e+006 1.004483809861e+006 1.004483809860e+006 1.004483809860e+006 1.004483809861e+006 1.004483809859e+006 1.004483809861e+006 1.004483809861e+006 1.004355585774e+006 1.004355585777e+006 1.004355585777e+006 1.004355585776e+006 1.004355585776e+006 1.004355585776e+006 1.004355585775e+006 1.004355585775e+006 1.004355585774e+006 1.004235898539e+006 1.004235898541e+006 1.004235898540e+006 1.004235898541e+006 1.004235898542e+006 1.004235898540e+006 1.004235898543e+006 1.004235898539e+006 1.004235898539e+006 1.004069765151e+006 1.004069765151e+006 1.004069765150e+006 1.004069765148e+006 1.004069765147e+006 1.004069765147e+006 1.004069765146e+006 1.004069765145e+006 1.004069765147e+006 1.003958158228e+006 1.003958158230e+006 1.003958158229e+006 1.003958158232e+006 1.003958158237e+006 1.003958158237e+006 1.003958158234e+006 1.003958158237e+006 1.003958158234e+006 1.003838606631e+006 1.003838606632e+006 1.003838606632e+006 1.003838606626e+006 1.003838606623e+006 1.003838606621e+006 1.003838606619e+006 1.003838606620e+006 1.003838606616e+006 1.003695202972e+006 1.003695202974e+006 1.003695202977e+006 1.003695202985e+006 1.003695202992e+006 1.003695202996e+006 1.003695202995e+006 1.003695202998e+006 1.003695202996e+006 1.003513800612e+006 1.003513800609e+006 1.003513800607e+006 1.003513800591e+006 1.003513800586e+006 1.003513800583e+006 1.003513800582e+006 1.003513800580e+006 1.003513800577e+006 1.003495274599e+006 1.003495274600e+006 1.003495274593e+006 1.003495274615e+006 1.003495274622e+006 1.003495274625e+006 1.003495274626e+006 1.003495274626e+006 1.003495274632e+006 1.003216900956e+006 1.003216900953e+006 1.003216900956e+006 1.003216900935e+006 1.003216900935e+006 1.003216900933e+006 1.003216900927e+006 1.003216900925e+006 1.003216900926e+006 1.003226867937e+006 1.003226867940e+006 1.003226867938e+006 1.003226867940e+006 1.003226867945e+006 1.003226867947e+006 1.003226867947e+006 1.003226867946e+006 1.003226867946e+006 1.002999949459e+006 1.002999949460e+006 1.002999949455e+006 1.002999949466e+006 1.002999949460e+006 1.002999949461e+006 1.002999949460e+006 1.002999949463e+006 1.002999949460e+006 1.002895736382e+006 1.002895736384e+006 1.002895736380e+006 1.002895736383e+006 1.002895736378e+006 1.002895736379e+006 1.002895736378e+006 1.002895736378e+006 1.002895736380e+006 1.002783502993e+006 1.002783502995e+006 1.002783502993e+006 1.002783502994e+006 1.002783502993e+006 1.002783502992e+006 1.002783502992e+006 1.002783502993e+006 1.002783502992e+006 1.002639470412e+006 1.002639470409e+006 1.002639470410e+006 1.002639470410e+006 1.002639470409e+006 1.002639470410e+006 1.002639470410e+006 1.002639470409e+006 1.002639470410e+006 1.002519904357e+006 1.002519904357e+006 1.002519904357e+006 1.002519904358e+006 1.002519904358e+006 1.002519904359e+006 1.002519904358e+006 1.002519904358e+006 1.002519904357e+006 1.002386212635e+006 1.002386212634e+006 1.002386212634e+006 1.002386212636e+006 1.002386212635e+006 1.002386212635e+006 1.002386212635e+006 1.002386212633e+006 1.002386212633e+006 1.002258233277e+006 1.002258233278e+006 1.002258233278e+006 1.002258233277e+006 1.002258233278e+006 1.002258233278e+006 1.002258233276e+006 1.002258233277e+006 1.002258233276e+006 1.002159337208e+006 1.002159337208e+006 1.002159337209e+006 1.002159337208e+006 1.002159337208e+006 1.002159337208e+006 1.002159337208e+006 1.002159337209e+006 1.002159337207e+006 1.002016416824e+006 1.002016416823e+006 1.002016416824e+006 1.002016416824e+006 1.002016416824e+006 1.002016416824e+006 1.002016416824e+006 1.002016416823e+006 1.002016416827e+006 1.001906095353e+006 1.001906095354e+006 1.001906095354e+006 1.001906095352e+006 1.001906095351e+006 1.001906095352e+006 1.001906095352e+006 1.001906095353e+006 1.001906095352e+006 1.001800234407e+006 1.001800234405e+006 1.001800234407e+006 1.001800234406e+006 1.001800234407e+006 1.001800234407e+006 1.001800234406e+006 1.001800234408e+006 1.001800234408e+006 1.001672129656e+006 1.001672129656e+006 1.001672129654e+006 1.001672129656e+006 1.001672129656e+006 1.001672129655e+006 1.001672129656e+006 1.001672129657e+006 1.001672129656e+006 1.001583030677e+006 1.001583030678e+006 1.001583030679e+006 1.001583030678e+006 1.001583030679e+006 1.001583030679e+006 1.001583030678e+006 1.001583030679e+006 1.001583030680e+006 1.001484169214e+006 1.001484169215e+006 1.001484169215e+006 1.001484169215e+006 1.001484169215e+006 1.001484169215e+006 1.001484169215e+006 1.001484169215e+006 1.001484169214e+006 1.001406951448e+006 1.001406951448e+006 1.001406951448e+006 1.001406951448e+006 1.001406951448e+006 1.001406951448e+006 1.001406951448e+006 1.001406951448e+006 1.001406951448e+006 1.001332899273e+006 1.001332899273e+006 1.001332899273e+006 1.001332899274e+006 1.001332899274e+006 1.001332899273e+006 1.001332899273e+006 1.001332899273e+006 1.001332899273e+006 1.001258847262e+006 1.001258847262e+006 1.001258847263e+006 1.001258847263e+006 1.001258847263e+006 1.001258847263e+006 1.001258847262e+006 1.001258847262e+006 1.001258847262e+006 1.001184795660e+006 1.001184795660e+006 1.001184795661e+006 1.001184795660e+006 1.001184795660e+006 1.001184795661e+006 1.001184795660e+006 1.001184795660e+006 1.001184795660e+006 1.001110744394e+006 1.001110744394e+006 1.001110744394e+006 1.001110744394e+006 1.001110744394e+006 1.001110744394e+006 1.001110744394e+006 1.001110744393e+006 1.001110744393e+006 1.001036693449e+006 1.001036693449e+006 1.001036693448e+006 1.001036693448e+006 1.001036693448e+006 1.001036693448e+006 1.001036693448e+006 1.001036693448e+006 1.001036693448e+006 1.000962642801e+006 1.000962642801e+006 1.000962642801e+006 1.000962642801e+006 1.000962642801e+006 1.000962642801e+006 1.000962642801e+006 1.000962642801e+006 1.000962642801e+006 1.000888592427e+006 1.000888592427e+006 1.000888592427e+006 1.000888592427e+006 1.000888592427e+006 1.000888592427e+006 1.000888592427e+006 1.000888592427e+006 1.000888592427e+006 1.000814542299e+006 1.000814542300e+006 1.000814542300e+006 1.000814542300e+006 1.000814542300e+006 1.000814542300e+006 1.000814542300e+006 1.000814542300e+006 1.000814542300e+006 1.000740492395e+006 1.000740492395e+006 1.000740492395e+006 1.000740492395e+006 1.000740492395e+006 1.000740492395e+006 1.000740492395e+006 1.000740492395e+006 1.000740492395e+006 1.000666442687e+006 1.000666442687e+006 1.000666442687e+006 1.000666442687e+006 1.000666442687e+006 1.000666442687e+006 1.000666442687e+006 1.000666442687e+006 1.000666442687e+006 1.000592393151e+006 1.000592393151e+006 1.000592393151e+006 1.000592393151e+006 1.000592393151e+006 1.000592393151e+006 1.000592393151e+006 1.000592393151e+006 1.000592393151e+006 1.000518343762e+006 1.000518343761e+006 1.000518343761e+006 1.000518343761e+006 1.000518343762e+006 1.000518343762e+006 1.000518343762e+006 1.000518343762e+006 1.000518343762e+006 1.000444294493e+006 1.000444294493e+006 1.000444294493e+006 1.000444294493e+006 1.000444294493e+006 1.000444294494e+006 1.000444294494e+006 1.000444294493e+006 1.000444294493e+006 1.000370245321e+006 1.000370245321e+006 1.000370245321e+006 1.000370245321e+006 1.000370245321e+006 1.000370245321e+006 1.000370245321e+006 1.000370245321e+006 1.000370245321e+006 1.000296196218e+006 1.000296196218e+006 1.000296196218e+006 1.000296196218e+006 1.000296196218e+006 1.000296196218e+006 1.000296196218e+006 1.000296196218e+006 1.000296196218e+006 1.000222147161e+006 1.000222147161e+006 1.000222147161e+006 1.000222147161e+006 1.000222147161e+006 1.000222147161e+006 1.000222147161e+006 1.000222147161e+006 1.000222147161e+006 1.000148098122e+006 1.000148098122e+006 1.000148098122e+006 1.000148098122e+006 1.000148098122e+006 1.000148098122e+006 1.000148098122e+006 1.000148098122e+006 1.000148098122e+006 1.000074049077e+006 1.000074049077e+006 1.000074049077e+006 1.000074049077e+006 1.000074049077e+006 1.000074049077e+006 1.000074049077e+006 1.000074049077e+006 1.000074049077e+006 1.000000000000e+006 1.000000000000e+006 1.000000000000e+006 1.000000000000e+006 1.000000000000e+006 1.000000000000e+006 1.000000000000e+006 1.000000000000e+006 1.000000000000e+006 
        </DataArray>
        <DataArray type="Float64" Name="MOLAR_FRACTION" format="ascii">