<?xml version="1.0"?>
<VTKFile type="UnstructuredGrid" version="0.1" byte_order="LittleEndian">
  <UnstructuredGrid>
    <Piece NumberOfPoints="909" NumberOfCells="800">
      <Points>
        <DataArray type="Float64" NumberOfComponents="3" format="ascii">
          0.000000000000e+000 0.000000000000e+000 0.000000000000e+000
          2.000000000000e+000 0.000000000000e+000 0.000000000000e+000
          2.000000000000e+000 2.500000000000e+000 0.000000000000e+000
          0.000000000000e+000 2.500000000000e+000 0.000000000000e+000
          2.000000000000e+000 5.000000000000e+000 0.000000000000e+000
          0.000000000000e+000 5.000000000000e+000 0.000000000000e+000
          2.000000000000e+000 7.500000000000e+000 0.000000000000e+000
          0.000000000000e+000 7.500000000000e+000 0.000000000000e+000
          2.000000000000e+000 1.000000000000e+001 0.000000000000e+000
          0.000000000000e+000 1.000000000000e+001 0.000000000000e+000
          2.000000000000e+000 1.250000000000e+001 0.000000000000e+000
          0.000000000000e+000 1.250000000000e+001 0.000000000000e+000
          2.000000000000e+000 1.500000000000e+001 0.000000000000e+000
          0.000000000000e+000 1.500000000000e+001 0.000000000000e+000
          2.000000000000e+000 1.750000000000e+001 0.000000000000e+000
          0.000000000000e+000 1.750000000000e+001 0.000000000000e+000
          2.000000000000e+000 2.000000000000e+001 0.000000000000e+000
          0.000000000000e+000 2.000000000000e+001 0.000000000000e+000
          4.000000000000e+000 0.000000000000e+000 0.000000000000e+000
          4.000000000000e+000 2.500000000000e+000 0.000000000000e+000
          4.000000000000e+000 5.000000000000e+000 0.000000000000e+000
          4.000000000000e+000 7.500000000000e+000 0.000000000000e+000
          4.000000000000e+000 1.000000000000e+001 0.000000000000e+000
          4.000000000000e+000 1.250000000000e+001 0.000000000000e+000
          4.000000000000e+000 1.500000000000e+001 0.000000000000e+000
          4.000000000000e+000 1.750000000000e+001 0.000000000000e+000
          4.000000000000e+000 2.000000000000e+001 0.000000000000e+000
          6.000000000000e+000 0.000000000000e+000 0.000000000000e+000
          6.000000000000e+000 2.500000000000e+000 0.000000000000e+000
          6.000000000000e+000 5.000000000000e+000 0.000000000000e+000
          6.000000000000e+000 7.500000000000e+000 0.000000000000e+000
          6.000000000000e+000 1.000000000000e+001 0.000000000000e+000
          6.000000000000e+000 1.250000000000e+001 0.000000000000e+000
          6.000000000000e+000 1.500000000000e+001 0.000000000000e+000
          6.000000000000e+000 1.750000000000e+001 0.000000000000e+000
          6.000000000000e+000 2.000000000000e+001 0.000000000000e+000
          8.000000000000e+000 0.000000000000e+000 0.000000000000e+000
          8.000000000000e+000 2.500000000000e+000 0.000000000000e+000
          8.000000000000e+000 5.000000000000e+000 0.000000000000e+000
          8.000000000000e+000 7.500000000000e+000 0.000000000000e+000
          8.000000000000e+000 1.000000000000e+001 0.000000000000e+000
          8.000000000000e+000 1.250000000000e+001 0.000000000000e+000
          8.000000000000e+000 1.500000000000e+001 0.000000000000e+000
          8.000000000000e+000 1.750000000000e+001 0.000000000000e+000
          8.000000000000e+000 2.000000000000e+001 0.000000000000e+000
          1.000000000000e+001 0.000000000000e+000 0.000000000000e+000
          1.000000000000e+001 2.500000000000e+000 0.000000000000e+000
          1.000000000000e+001 5.000000000000e+000 0.000000000000e+000
          1.000000000000e+001 7.500000000000e+000 0.000000000000e+000
          1.000000000000e+001 1.000000000000e+001 0.000000000000e+000
          1.000000000000e+001 1.250000000000e+001 0.000000000000e+000
          1.000000000000e+001 1.500000000000e+001 0.000000000000e+000
          1.000000000000e+001 1.750000000000e+001 0.000000000000e+000
          1.000000000000e+001 2.000000000000e+001 0.000000000000e+000
          1.200000000000e+001 0.000000000000e+000 0.000000000000e+000
          1.200000000000e+001 2.500000000000e+000 0.000000000000e+000
          1.200000000000e+001 5.000000000000e+000 0.000000000000e+000
          1.200000000000e+001 7.500000000000e+000 0.000000000000e+000
          1.200000000000e+001 1.000000000000e+001 0.000000000000e+000
          1.200000000000e+001 1.250000000000e+001 0.000000000000e+000
          1.200000000000e+001 1.500000000000e+001 0.000000000000e+000
          1.200000000000e+001 1.750000000000e+001 0.000000000000e+000
          1.200000000000e+001 2.000000000000e+001 0.000000000000e+000
          1.400000000000e+001 0.000000000000e+000 0.000000000000e+000
          1.400000000000e+001 2.500000000000e+000 0.000000000000e+000
          1.400000000000e+001 5.000000000000e+000 0.000000000000e+000
          1.400000000000e+001 7.500000000000e+000 0.000000000000e+000
          1.400000000000e+001 1.000000000000e+001 0.000000000000e+000
          1.400000000000e+001 1.250000000000e+001 0.000000000000e+000
          1.400000000000e+001 1.500000000000e+001 0.000000000000e+000
          1.400000000000e+001 1.750000000000e+001 0.000000000000e+000
          1.400000000000e+001 2.000000000000e+001 0.000000000000e+000
          1.600000000000e+001 0.000000000000e+000 0.000000000000e+000
          1.600000000000e+001 2.500000000000e+000 0.000000000000e+000
          1.600000000000e+001 5.000000000000e+000 0.000000000000e+000
          1.600000000000e+001 7.500000000000e+000 0.000000000000e+000
          1.600000000000e+001 1.000000000000e+001 0.000000000000e+000
          1.600000000000e+001 1.250000000000e+001 0.000000000000e+000
          1.600000000000e+001 1.500000000000e+001 0.000000000000e+000
          1.600000000000e+001 1.750000000000e+001 0.000000000000e+000
          1.600000000000e+001 2.000000000000e+001 0.000000000000e+000
          1.800000000000e+001 0.000000000000e+000 0.000000000000e+000
          1.800000000000e+001 2.500000000000e+000 0.000000000000e+000
          1.800000000000e+001 5.000000000000e+000 0.000000000000e+000
          1.800000000000e+001 7.500000000000e+000 0.000000000000e+000
          1.800000000000e+001 1.000000000000e+001 0.000000000000e+000
          1.800000000000e+001 1.250000000000e+001 0.000000000000e+000
          1.800000000000e+001 1.500000000000e+001 0.000000000000e+000
          1.800000000000e+001 1.750000000000e+001 0.000000000000e+000
          1.800000000000e+001 2.000000000000e+001 0.000000000000e+000
          2.000000000000e+001 0.000000000000e+000 0.000000000000e+000
          2.000000000000e+001 2.500000000000e+000 0.000000000000e+000
          2.000000000000e+001 5.000000000000e+000 0.000000000000e+000
          2.000000000000e+001 7.500000000000e+000 0.000000000000e+000
          2.000000000000e+001 1.000000000000e+001 0.000000000000e+000
          2.000000000000e+001 1.250000000000e+001 0.000000000000e+000
          2.000000000000e+001 1.500000000000e+001 0.000000000000e+000
          2.000000000000e+001 1.750000000000e+001 0.000000000000e+000
          2.000000000000e+001 2.000000000000e+001 0.000000000000e+000
          2.200000000000e+001 0.000000000000e+000 0.000000000000e+000
          2.200000000000e+001 2.500000000000e+000 0.000000000000e+000
          2.200000000000e+001 5.000000000000e+000 0.000000000000e+000
          2.200000000000e+001 7.500000000000e+000 0.000000000000e+000
          2.200000000000e+001 1.000000000000e+001 0.000000000000e+000
          2.200000000000e+001 1.250000000000e+001 0.000000000000e+000
          2.200000000000e+001 1.500000000000e+001 0.000000000000e+000
          2.200000000000e+001 1.750000000000e+001 0.000000000000e+000
          2.200000000000e+001 2.000000000000e+001 0.000000000000e+000
          2.400000000000e+001 0.000000000000e+000 0.000000000000e+000
          2.400000000000e+001 2.500000000000e+000 0.000000000000e+000
          2.400000000000e+001 5.000000000000e+000 0.000000000000e+000
          2.400000000000e+001 7.500000000000e+000 0.000000000000e+000
          2.400000000000e+001 1.000000000000e+001 0.000000000000e+000
          2.400000000000e+001 1.250000000000e+001 0.000000000000e+000
          2.400000000000e+001 1.500000000000e+001 0.000000000000e+000
          2.400000000000e+001 1.750000000000e+001 0.000000000000e+000
          2.400000000000e+001 2.000000000000e+001 0.000000000000e+000
          2.600000000000e+001 0.000000000000e+000 0.000000000000e+000
          2.600000000000e+001 2.500000000000e+000 0.000000000000e+000
          2.600000000000e+001 5.000000000000e+000 0.000000000000e+000
          2.600000000000e+001 7.500000000000e+000 0.000000000000e+000
          2.600000000000e+001 1.000000000000e+001 0.000000000000e+000
          2.600000000000e+001 1.250000000000e+001 0.000000000000e+000
          2.600000000000e+001 1.500000000000e+001 0.000000000000e+000
          2.600000000000e+001 1.750000000000e+001 0.000000000000e+000
          2.600000000000e+001 2.000000000000e+001 0.000000000000e+000
          2.800000000000e+001 0.000000000000e+000 0.000000000000e+000
          2.800000000000e+001 2.500000000000e+000 0.000000000000e+000
          2.800000000000e+001 5.000000000000e+000 0.000000000000e+000
          2.800000000000e+001 7.500000000000e+000 0.000000000000e+000
          2.800000000000e+001 1.000000000000e+001 0.000000000000e+000
          2.800000000000e+001 1.250000000000e+001 0.000000000000e+000
          2.800000000000e+001 1.500000000000e+001 0.000000000000e+000
          2.800000000000e+001 1.750000000000e+001 0.000000000000e+000
          2.800000000000e+001 2.000000000000e+001 0.000000000000e+000
          3.000000000000e+001 0.000000000000e+000 0.000000000000e+000
          3.000000000000e+001 2.500000000000e+000 0.000000000000e+000
          3.000000000000e+001 5.000000000000e+000 0.000000000000e+000
          3.000000000000e+001 7.500000000000e+000 0.000000000000e+000
[...]
      <PointData Scalars="LIQUID_PRESSURE">
        <DataArray type="Float64" Name="LIQUID_PRESSURE" format="ascii">
          1.034131781307e+006 1.034050090124e+006 1.034050090071e+006 1.034131781172e+006 1.034050089994e+006 1.034131781016e+006 1.034050089891e+006 1.034131781000e+006 1.034050089749e+006 1.034131780798e+006 1.034050089535e+006 1.034131780430e+006 1.034050089347e+006 1.034131780178e+006 1.034050089204e+006 1.034131779959e+006 1.034050089144e+006 1.034131779818e+006 1.033780742822e+006 1.033780742807e+006 1.033780742744e+006 1.033780742654e+006 1.033780742536e+006 1.033780742394e+006 1.033780742267e+006 1.033780742184e+006 1.033780742150e+006 1.033412126351e+006 1.033412126340e+006 1.033412126297e+006 1.033412126229e+006 1.033412126149e+006 1.033412126046e+006 1.033412125961e+006 1.033412125906e+006 1.033412125877e+006 1.033062874621e+006 1.033062874615e+006 1.033062874593e+006 1.033062874535e+006 1.033062874476e+006 1.033062874404e+006 1.033062874350e+006 1.033062874309e+006 1.033062874292e+006 1.032713795617e+006 1.032713795615e+006 1.032713795596e+006 1.032713795561e+006 1.032713795509e+006 1.032713795471e+006 1.032713795432e+006 1.032713795401e+006 1.032713795397e+006 1.032364894349e+006 1.032364894350e+006 1.032364894336e+006 1.032364894311e+006 1.032364894277e+006 1.032364894254e+006 1.032364894228e+006 1.032364894213e+006 1.032364894207e+006 1.032016173549e+006 1.032016173547e+006 1.032016173534e+006 1.032016173514e+006 1.032016173498e+006 1.032016173476e+006 1.032016173467e+006 1.032016173458e+006 1.032016173459e+006 1.031667634027e+006 1.031667634020e+006 1.031667634011e+006 1.031667633992e+006 1.031667633983e+006 1.031667633972e+006 1.031667633965e+006 1.031667633968e+006 1.031667633961e+006 1.031319275966e+006 1.031319275958e+006 1.031319275949e+006 1.031319275934e+006 1.031319275923e+006 1.031319275914e+006 1.031319275914e+006 1.031319275917e+006 1.031319275917e+006 1.030971098627e+006 1.030971098624e+006 1.030971098615e+006 1.030971098599e+006 1.030971098591e+006 1.030971098586e+006 1.030971098584e+006 1.030971098591e+006 1.030971098590e+006 1.030623100642e+006 1.030623100643e+006 1.030623100634e+006 1.030623100624e+006 1.030623100614e+006 1.030623100608e+006 1.030623100617e+006 1.030623100614e+006 1.030623100618e+006 1.030275280456e+006 1.030275280455e+006 1.030275280449e+006 1.030275280443e+006 1.030275280435e+006 1.030275280435e+006 1.030275280431e+006 1.030275280433e+006 1.030275280434e+006 1.029927636194e+006 1.029927636192e+006 1.029927636194e+006 1.029927636189e+006 1.029927636188e+006 1.029927636183e+006 1.029927636180e+006 1.029927636178e+006 1.029927636179e+006 1.029580165680e+006 1.029580165683e+006 1.029580165680e+006 1.029580165683e+006 1.029580165679e+006 1.029580165679e+006 1.029580165677e+006 1.029580165676e+006 1.029580165673e+006 1.029232866485e+006 1.029232866486e+006 1.029232866489e+006 1.029232866488e+006 1.029232866491e+006 1.029232866487e+006 1.029232866489e+006 1.029232866485e+006 1.029232866483e+006 1.028885736000e+006 1.028885735996e+006 1.028885735998e+006 1.028885735999e+006 1.028885735999e+006 1.028885736004e+006 1.028885736001e+006 1.028885736001e+006 1.028885736000e+006 1.028538771420e+006 1.028538771421e+006 1.028538771421e+006 1.028538771425e+006 1.028538771426e+006 1.028538771428e+006 1.028538771430e+006 1.028538771431e+006 1.028538771428e+006 1.028191969777e+006 1.028191969778e+006 1.028191969778e+006 1.028191969780e+006 1.028191969783e+006 1.028191969787e+006 1.028191969785e+006 1.028191969786e+006 1.028191969787e+006 1.027845327918e+006 1.027845327917e+006 1.027845327917e+006 1.027845327918e+006 1.027845327921e+006 1.027845327921e+006 1.027845327922e+006 1.027845327921e+006 1.027845327923e+006 1.027498842523e+006 1.027498842520e+006 1.027498842522e+006 1.027498842522e+006 1.027498842523e+006 1.027498842525e+006 1.027498842523e+006 1.027498842523e+006 1.027498842524e+006 1.027152510120e+006 1.027152510119e+006 1.027152510121e+006 1.027152510119e+006 1.027152510119e+006 1.027152510118e+006 1.027152510118e+006 1.027152510118e+006 1.027152510117e+006 1.026806327107e+006 1.026806327104e+006 1.026806327106e+006 1.026806327106e+006 1.026806327105e+006 1.026806327105e+006 1.026806327103e+006 1.026806327103e+006 1.026806327103e+006 1.026460289763e+006 1.026460289763e+006 1.026460289762e+006 1.026460289762e+006 1.026460289759e+006 1.026460289761e+006 1.026460289758e+006 1.026460289759e+006 1.026460289759e+006 1.026114394259e+006 1.026114394257e+006 1.026114394257e+006 1.026114394255e+006 1.026114394255e+006 1.026114394253e+006 1.026114394253e+006 1.026114394253e+006 1.026114394252e+006 1.025768636675e+006 1.025768636674e+006 1.025768636675e+006 1.025768636676e+006 1.025768636674e+006 1.025768636673e+006 1.025768636672e+006 1.025768636672e+006 1.025768636671e+006 1.025423013018e+006 1.025423013017e+006 1.025423013018e+006 1.025423013018e+006 1.025423013017e+006 1.025423013016e+006 1.025423013015e+006 1.025423013016e+006 1.025423013014e+006 1.025077519219e+006 1.025077519220e+006 1.025077519220e+006 1.025077519220e+006 1.025077519220e+006 1.025077519219e+006 1.025077519219e+006 1.025077519219e+006 1.025077519219e+006 1.024732151174e+006 1.024732151175e+006 1.024732151174e+006 1.024732151174e+006 1.024732151174e+006 1.024732151173e+006 1.024732151173e+006 1.024732151174e+006 1.024732151173e+006 1.024386904734e+006 1.024386904734e+006 1.024386904734e+006 1.024386904734e+006 1.024386904733e+006 1.024386904733e+006 1.024386904734e+006 1.024386904734e+006 1.024386904734e+006 1.024041775730e+006 1.024041775730e+006 1.024041775729e+006 1.024041775729e+006 1.024041775729e+006 1.024041775729e+006 1.024041775730e+006 1.024041775731e+006 1.024041775732e+006 1.023696759988e+006 1.023696759988e+006 1.023696759988e+006 1.023696759987e+006 1.023696759987e+006 1.023696759988e+006 1.023696759989e+006 1.023696759990e+006 1.023696759990e+006 1.023351853334e+006 1.023351853334e+006 1.023351853333e+006 1.023351853333e+006 1.023351853334e+006 1.023351853334e+006 1.023351853335e+006 1.023351853335e+006 1.023351853335e+006 1.023007051612e+006 1.023007051611e+006 1.023007051611e+006 1.023007051611e+006 1.023007051611e+006 1.023007051612e+006 1.023007051612e+006 1.023007051613e+006 1.023007051612e+006 1.022662350689e+006 1.022662350688e+006 1.022662350688e+006 1.022662350688e+006 1.022662350688e+006 1.022662350688e+006 1.022662350688e+006 1.022662350688e+006 1.022662350688e+006 1.022317746470e+006 1.022317746470e+006 1.022317746470e+006 1.022317746470e+006 1.022317746469e+006 1.022317746470e+006 1.022317746469e+006 1.022317746469e+006 1.022317746469e+006 1.021973234905e+006 1.021973234905e+006 1.021973234905e+006 1.021973234905e+006 1.021973234905e+006 1.021973234905e+006 1.021973234904e+006 1.021973234904e+006 1.021973234904e+006 1.021628812002e+006 1.021628812002e+006 1.021628812002e+006 1.021628812002e+006 1.021628812002e+006 1.021628812002e+006 1.021628812002e+006 1.021628812001e+006 1.021628812001e+006 1.021284473830e+006 1.021284473830e+006 1.021284473830e+006 1.021284473830e+006 1.021284473830e+006 1.021284473830e+006 1.021284473829e+006 1.021284473829e+006 1.021284473829e+006 1.020940216527e+006 1.020940216527e+006 1.020940216527e+006 1.020940216527e+006 1.020940216527e+006 1.020940216526e+006 1.020940216526e+006 1.020940216526e+006 1.020940216526e+006 1.020596036313e+006 1.020596036313e+006 1.020596036313e+006 1.020596036313e+006 1.020596036313e+006 1.020596036313e+006 1.020596036313e+006 1.020596036313e+006 1.020596036313e+006 1.020251929486e+006 1.020251929486e+006 1.020251929485e+006 1.020251929485e+006 1.020251929485e+006 1.020251929485e+006 1.020251929485e+006 1.020251929485e+006 1.020251929485e+006 1.019907892433e+006 1.019907892433e+006 1.019907892433e+006 1.019907892433e+006 1.019907892433e+006 1.019907892433e+006 1.019907892433e+006 1.019907892433e+006 1.019907892433e+006 1.019563921638e+006 1.019563921638e+006 1.019563921638e+006 1.019563921638e+006 1.019563921638e+006 1.019563921638e+006 1.019563921638e+006 1.019563921638e+006 1.019563921638e+006 1.019220013682e+006 1.019220013682e+006 1.019220013682e+006 1.019220013682e+006 1.019220013682e+006 1.019220013682e+006 1.019220013682e+006 1.019220013682e+006 1.019220013682e+006 1.018876165244e+006 1.018876165244e+006 1.018876165244e+006 1.018876165244e+006 1.018876165244e+006 1.018876165245e+006 1.018876165245e+006 1.018876165245e+006 1.018876165245e+006 1.018532373109e+006 1.018532373109e+006 1.018532373109e+006 1.018532373109e+006 1.018532373109e+006 1.018532373109e+006 1.018532373110e+006 1.018532373110e+006 1.018532373110e+006 1.018188634168e+006 1.018188634168e+006 1.018188634168e+006 1.018188634168e+006 1.018188634168e+006 1.018188634168e+006 1.018188634168e+006 1.018188634168e+006 1.018188634168e+006 1.017844945418e+006 1.017844945418e+006 1.017844945418e+006 1.017844945418e+006 1.017844945418e+006 1.017844945418e+006 1.017844945418e+006 1.017844945418e+006 1.017844945419e+006 1.017501303970e+006 1.017501303970e+006 1.017501303970e+006 1.017501303970e+006 1.017501303970e+006 1.017501303970e+006 1.017501303970e+006 1.017501303970e+006 1.017501303970e+006 1.017157707041e+006 1.017157707041e+006 1.017157707041e+006 1.017157707041e+006 1.017157707041e+006 1.017157707041e+006 1.017157707041e+006 1.017157707041e+006 1.017157707041e+006 1.016814151962e+006 1.016814151962e+006 1.016814151962e+006 1.016814151962e+006 1.016814151962e+006 1.016814151962e+006 1.016814151962e+006 1.016814151962e+006 1.016814151962e+006 1.016470636173e+006 1.016470636173e+006 1.016470636173e+006 1.016470636173e+006 1.016470636173e+006 1.016470636173e+006 1.016470636173e+006 1.016470636173e+006 1.016470636173e+006 1.016127157223e+006 1.016127157223e+006 1.016127157223e+006 1.016127157223e+006 1.016127157223e+006 1.016127157223e+006 1.016127157223e+006 1.016127157223e+006 1.016127157223e+006 1.015783712772e+006 1.015783712772e+006 1.015783712772e+006 1.015783712772e+006 1.015783712772e+006 1.015783712772e+006 1.015783712772e+006 1.015783712772e+006 1.015783712772e+006 1.015440300588e+006 1.015440300588e+006 1.015440300588e+006 1.015440300588e+006 1.015440300588e+006 1.015440300588e+006 1.015440300588e+006 1.015440300588e+006 1.015440300588e+006 1.015096918545e+006 1.015096918545e+006 1.015096918545e+006 1.015096918545e+006 1.015096918545e+006 1.015096918545e+006 1.015096918545e+006 1.015096918545e+006 1.015096918545e+006 1.014753564621e+006 1.014753564621e+006 1.014753564621e+006 1.014753564621e+006 1.014753564621e+006 1.014753564621e+006 1.014753564621e+006 1.014753564621e+006 1.014753564620e+006 1.014410236897e+006 1.014410236897e+006 1.014410236897e+006 1.014410236897e+006 1.014410236897e+006 1.014410236897e+006 1.014410236897e+006 1.014410236897e+006 1.014410236896e+006 1.014066933554e+006 1.014066933554e+006 1.014066933554e+006 1.014066933554e+006 1.014066933554e+006 1.014066933554e+006 1.014066933554e+006 1.014066933554e+006 1.014066933554e+006 1.013723652873e+006 1.013723652873e+006 1.013723652873e+006 1.013723652873e+006 1.013723652873e+006 1.013723652873e+006 1.013723652872e+006 1.013723652872e+006 1.013723652872e+006 1.013380393225e+006 1.013380393225e+006 1.013380393225e+006 1.013380393225e+006 1.013380393225e+006 1.013380393225e+006 1.013380393225e+006 1.013380393225e+006 1.013380393225e+006 1.013037153079e+006 1.013037153079e+006 1.013037153079e+006 1.013037153078e+006 1.013037153078e+006 1.013037153078e+006 1.013037153078e+006 1.013037153078e+006 1.013037153078e+006 1.012693930987e+006 1.012693930987e+006 1.012693930987e+006 1.012693930987e+006 1.012693930987e+006 1.012693930987e+006 1.012693930987e+006 1.012693930987e+006 1.012693930987e+006 1.012350725593e+006 1.012350725593e+006 1.012350725593e+006 1.012350725593e+006 1.012350725593e+006 1.012350725593e+006 1.012350725593e+006 1.012350725593e+006 1.012350725593e+006 1.012007535619e+006 1.012007535619e+006 1.012007535619e+006 1.012007535619e+006 1.012007535619e+006 1.012007535619e+006 1.012007535619e+006 1.012007535619e+006 1.012007535619e+006 1.011664359870e+006 1.011664359870e+006 1.011664359869e+006 1.011664359869e+006 1.011664359869e+006 1.011664359869e+006 1.011664359869e+006 1.011664359869e+006 1.011664359869e+006 1.011321197224e+006 1.011321197224e+006 1.011321197224e+006 1.011321197224e+006 1.011321197224e+006 1.011321197224e+006 1.011321197224e+006 1.011321197224e+006 1.011321197224e+006 1.010978046635e+006 1.010978046635e+006 1.010978046635e+006 1.010978046635e+006 1.010978046635e+006 1.010978046635e+006 1.010978046635e+006 1.010978046635e+006 1.010978046634e+006 1.010634907125e+006 1.010634907125e+006 1.010634907125e+006 1.010634907125e+006 1.010634907124e+006 1.010634907124e+006 1.010634907124e+006 1.010634907124e+006 1.010634907124e+006 1.010291777782e+006 1.010291777782e+006 1.010291777782e+006 1.010291777782e+006 1.010291777782e+006 1.010291777782e+006 1.010291777782e+006 1.010291777782e+006 1.010291777782e+006 1.009948657758e+006 1.009948657758e+006 1.009948657758e+006 1.009948657758e+006 1.009948657758e+006 1.009948657758e+006 1.009948657758e+006 1.009948657758e+006 1.009948657758e+006 1.009605546266e+006 1.009605546266e+006 1.009605546266e+006 1.009605546266e+006 1.009605546266e+006 1.009605546266e+006 1.009605546266e+006 1.009605546266e+006 1.009605546266e+006 1.009262442572e+006 1.009262442572e+006 1.009262442572e+006 1.009262442572e+006 1.009262442572e+006 1.009262442572e+006 1.009262442572e+006 1.009262442572e+006 1.009262442572e+006 1.008919345999e+006 1.008919345999e+006 1.008919345999e+006 1.008919345999e+006 1.008919345999e+006 1.008919345999e+006 1.008919345999e+006 1.008919345999e+006 1.008919345999e+006 1.008576255918e+006 1.008576255918e+006 1.008576255918e+006 1.008576255918e+006 1.008576255918e+006 1.008576255918e+006 1.008576255918e+006 1.008576255918e+006 1.008576255918e+006 1.008233171750e+006 1.008233171750e+006 1.008233171750e+006 1.008233171750e+006 1.008233171750e+006 1.008233171750e+006 1.008233171750e+006 1.008233171750e+006 1.008233171750e+006 1.007890092957e+006 1.007890092957e+006 1.007890092957e+006 1.007890092957e+006 1.007890092957e+006 1.007890092957e+006 1.007890092957e+006 1.007890092957e+006 1.007890092957e+006 1.007547019047e+006 1.007547019047e+006 1.007547019047e+006 1.007547019047e+006 1.007547019047e+006 1.007547019047e+006 1.007547019047e+006 1.007547019047e+006 1.007547019047e+006 1.007203949563e+006 1.007203949563e+006 1.007203949563e+006 1.007203949563e+006 1.007203949563e+006 1.007203949563e+006 1.007203949563e+006 1.007203949563e+006 1.007203949563e+006 1.006860884087e+006 1.006860884087e+006 1.006860884087e+006 1.006860884087e+006 1.006860884087e+006 1.006860884087e+006 1.006860884087e+006 1.006860884087e+006 1.006860884087e+006 1.006517822234e+006 1.006517822234e+006 1.006517822234e+006 1.006517822234e+006 1.006517822234e+006 1.006517822234e+006 1.006517822234e+006 1.006517822234e+006 1.006517822234e+006 1.006174763651e+006 1.006174763651e+006 1.006174763651e+006 1.006174763651e+006 1.006174763651e+006 1.006174763651e+006 1.006174763651e+006 1.006174763651e+006 1.006174763651e+006 1.005831708013e+006 1.005831708013e+006 1.005831708013e+006 1.005831708013e+006 1.005831708013e+006 1.005831708013e+006 1.005831708013e+006 1.005831708013e+006 1.005831708013e+006 1.005488655023e+006 1.005488655023e+006 1.005488655023e+006 1.005488655023e+006 1.005488655023e+006 1.005488655023e+006 1.005488655023e+006 1.005488655023e+006 1.005488655023e+006 1.005145604410e+006 1.005145604410e+006 1.005145604410e+006 1.005145604410e+006 1.005145604410e+006 1.005145604410e+006 1.005145604410e+006 1.005145604410e+006 1.005145604410e+006 1.004802555923e+006 1.004802555923e+006 1.004802555923e+006 1.004802555923e+006 1.004802555923e+006 1.004802555923e+006 1.004802555923e+006 1.004802555923e+006 1.004802555923e+006 1.004459509333e+006 1.004459509333e+006 1.004459509333e+006 1.004459509333e+006 1.004459509333e+006 1.004459509333e+006 1.004459509333e+006 1.004459509333e+006 1.004459509333e+006 1.004116464432e+006 1.004116464432e+006 1.004116464432e+006 1.004116464432e+006 1.004116464432e+006 1.004116464432e+006 1.004116464432e+006 1.004116464432e+006 1.004116464432e+006 1.003773421026e+006 1.003773421026e+006 1.003773421026e+006 1.003773421026e+006 1.003773421026e+006 1.003773421026e+006 1.003773421026e+006 1.003773421026e+006 1.003773421026e+006 1.003430378940e+006 1.003430378940e+006 1.003430378940e+006 1.003430378940e+006 1.003430378940e+006 1.003430378940e+006 1.003430378940e+006 1.003430378940e+006 1.003430378940e+006 1.003087338010e+006 1.003087338010e+006 1.003087338010e+006 1.003087338010e+006 1.003087338010e+006 1.003087338010e+006 1.003087338010e+006 1.003087338010e+006 1.003087338010e+006 1.002744298087e+006 1.002744298087e+006 1.002744298087e+006 1.002744298087e+006 1.002744298087e+006 1.002744298087e+006 1.002744298087e+006 1.002744298087e+006 1.002744298087e+006 1.002401259033e+006 1.002401259033e+006 1.002401259033e+006 1.002401259033e+006 1.002401259033e+006 1.002401259033e+006 1.002401259033e+006 1.002401259033e+006 1.002401259033e+006 1.002058220717e+006 1.002058220717e+006 1.002058220717e+006 1.002058220717e+006 1.002058220717e+006 1.002058220717e+006 1.002058220717e+006 1.002058220717e+006 1.002058220717e+006 1.001715183019e+006 1.001715183019e+006 1.001715183019e+006 1.001715183019e+006 1.001715183019e+006 1.001715183019e+006 1.001715183019e+006 1.001715183019e+006 1.001715183019e+006 1.001372145825e+006 1.001372145825e+006 1.001372145825e+006 1.001372145825e+006 1.001372145825e+006 1.001372145825e+006 1.001372145825e+006 1.001372145825e+006 1.001372145825e+006 1.001029109028e+006 1.001029109028e+006 1.001029109028e+006 1.001029109028e+006 1.001029109028e+006 1.001029109028e+006 1.001029109028e+006 1.001029109028e+006 1.001029109028e+006 1.000686072524e+006 1.000686072524e+006 1.000686072524e+006 1.000686072524e+006 1.000686072524e+006 1.000686072524e+006 1.000686072524e+006 1.000686072524e+006 1.000686072524e+006 1.000343036214e+006 1.000343036214e+006 1.000343036214e+006 1.000343036214e+006 1.000343036214e+006 1.000343036214e+006 1.000343036214e+006 1.000343036214e+006 1.000343036214e+006 1.000000000000e+006 1.000000000000e+006 1.000000000000e+006 1.000000000000e+006 1.000000000000e+006 1.000000000000e+006 1.000000000000e+006 1.000000000000e+006 1.000000000000e+006 
        </DataArray>
        <DataArray type="Float64" Name="MOLAR_FRACTION" format="ascii">