<?xml version="1.0"?>
<VTKFile type="UnstructuredGrid" version="0.1" byte_order="LittleEndian">
  <UnstructuredGrid>
    <Piece NumberOfPoints="909" NumberOfCells="800">
      <Points>
        <DataArray type="Float64" NumberOfComponents="3" format="ascii">
          0.000000000000e+000 0.000000000000e+000 0.000000000000e+000
          2.000000000000e+000 0.000000000000e+000 0.000000000000e+000
          2.000000000000e+000 2.500000000000e+000 0.000000000000e+000
          0.000000000000e+000 2.500000000000e+000 0.000000000000e+000
          2.000000000000e+000 5.000000000000e+000 0.000000000000e+000
          0.000000000000e+000 5.000000000000e+000 0.000000000000e+000
          2.000000000000e+000 7.500000000000e+000 0.000000000000e+000
          0.000000000000e+000 7.500000000000e+000 0.000000000000e+000
          2.000000000000e+000 1.000000000000e+001 0.000000000000e+000
          0.000000000000e+000 1.000000000000e+001 0.000000000000e+000
          2.000000000000e+000 1.250000000000e+001 0.000000000000e+000
          0.000000000000e+000 1.250000000000e+001 0.000000000000e+000
          2.000000000000e+000 1.500000000000e+001 0.000000000000e+000
          0.000000000000e+000 1.500000000000e+001 0.000000000000e+000
          2.000000000000e+000 1.750000000000e+001 0.000000000000e+000
          0.000000000000e+000 1.750000000000e+001 0.000000000000e+000
          2.000000000000e+000 2.000000000000e+001 0.000000000000e+000
          0.000000000000e+000 2.000000000000e+001 0.000000000000e+000
          4.000000000000e+000 0.000000000000e+000 0.000000000000e+000
          4.000000000000e+000 2.500000000000e+000 0.000000000000e+000
          4.000000000000e+000 5.000000000000e+000 0.000000000000e+000
          4.000000000000e+000 7.500000000000e+000 0.000000000000e+000
          4.000000000000e+000 1.000000000000e+001 0.000000000000e+000
          4.000000000000e+000 1.250000000000e+001 0.000000000000e+000
          4.000000000000e+000 1.500000000000e+001 0.000000000000e+000
          4.000000000000e+000 1.750000000000e+001 0.000000000000e+000
          4.000000000000e+000 2.000000000000e+001 0.000000000000e+000
          6.000000000000e+000 0.000000000000e+000 0.000000000000e+000
          6.000000000000e+000 2.500000000000e+000 0.000000000000e+000
          6.000000000000e+000 5.000000000000e+000 0.000000000000e+000
          6.000000000000e+000 7.500000000000e+000 0.000000000000e+000
          6.000000000000e+000 1.000000000000e+001 0.000000000000e+000
          6.000000000000e+000 1.250000000000e+001 0.000000000000e+000
          6.000000000000e+000 1.500000000000e+001 0.000000000000e+000
          6.000000000000e+000 1.750000000000e+001 0.000000000000e+000
          6.000000000000e+000 2.000000000000e+001 0.000000000000e+000
          8.000000000000e+000 0.000000000000e+000 0.000000000000e+000
          8.000000000000e+000 2.500000000000e+000 0.000000000000e+000
          8.000000000000e+000 5.000000000000e+000 0.000000000000e+000
          8.000000000000e+000 7.500000000000e+000 0.000000000000e+000
          8.000000000000e+000 1.000000000000e+001 0.000000000000e+000
          8.000000000000e+000 1.250000000000e+001 0.000000000000e+000
          8.000000000000e+000 1.500000000000e+001 0.000000000000e+000
          8.000000000000e+000 1.750000000000e+001 0.000000000000e+000
          8.000000000000e+000 2.000000000000e+001 0.000000000000e+000
          1.000000000000e+001 0.000000000000e+000 0.000000000000e+000
          1.000000000000e+001 2.500000000000e+000 0.000000000000e+000
          1.000000000000e+001 5.000000000000e+000 0.000000000000e+000
          1.000000000000e+001 7.500000000000e+000 0.000000000000e+000
          1.000000000000e+001 1.000000000000e+001 0.000000000000e+000
          1.000000000000e+001 1.250000000000e+001 0.000000000000e+000
          1.000000000000e+001 1.500000000000e+001 0.000000000000e+000
          1.000000000000e+001 1.750000000000e+001 0.000000000000e+000
          1.000000000000e+001 2.000000000000e+001 0.000000000000e+000
          1.200000000000e+001 0.000000000000e+000 0.000000000000e+000
          1.200000000000e+001 2.500000000000e+000 0.000000000000e+000
          1.200000000000e+001 5.000000000000e+000 0.000000000000e+000
          1.200000000000e+001 7.500000000000e+000 0.000000000000e+000
          1.200000000000e+001 1.000000000000e+001 0.000000000000e+000
          1.200000000000e+001 1.250000000000e+001 0.000000000000e+000
          1.200000000000e+001 1.500000000000e+001 0.000000000000e+000
          1.200000000000e+001 1.750000000000e+001 0.000000000000e+000
          1.200000000000e+001 2.000000000000e+001 0.000000000000e+000
          1.400000000000e+001 0.000000000000e+000 0.000000000000e+000
          1.400000000000e+001 2.500000000000e+000 0.000000000000e+000
          1.400000000000e+001 5.000000000000e+000 0.000000000000e+000
          1.400000000000e+001 7.500000000000e+000 0.000000000000e+000
          1.400000000000e+001 1.000000000000e+001 0.000000000000e+000
          1.400000000000e+001 1.250000000000e+001 0.000000000000e+000
          1.400000000000e+001 1.500000000000e+001 0.000000000000e+000
          1.400000000000e+001 1.750000000000e+001 0.000000000000e+000
          1.400000000000e+001 2.000000000000e+001 0.000000000000e+000
          1.600000000000e+001 0.000000000000e+000 0.000000000000e+000
          1.600000000000e+001 2.500000000000e+000 0.000000000000e+000
          1.600000000000e+001 5.000000000000e+000 0.000000000000e+000
          1.600000000000e+001 7.500000000000e+000 0.000000000000e+000
          1.600000000000e+001 1.000000000000e+001 0.000000000000e+000
          1.600000000000e+001 1.250000000000e+001 0.000000000000e+000
          1.600000000000e+001 1.500000000000e+001 0.000000000000e+000
          1.600000000000e+001 1.750000000000e+001 0.000000000000e+000
          1.600000000000e+001 2.000000000000e+001 0.000000000000e+000
          1.800000000000e+001 0.000000000000e+000 0.000000000000e+000
          1.800000000000e+001 2.500000000000e+000 0.000000000000e+000
          1.800000000000e+001 5.000000000000e+000 0.000000000000e+000
          1.800000000000e+001 7.500000000000e+000 0.000000000000e+000
          1.800000000000e+001 1.000000000000e+001 0.000000000000e+000
          1.800000000000e+001 1.250000000000e+001 0.000000000000e+000
          1.800000000000e+001 1.500000000000e+001 0.000000000000e+000
          1.800000000000e+001 1.750000000000e+001 0.000000000000e+000
          1.800000000000e+001 2.000000000000e+001 0.000000000000e+000
          2.000000000000e+001 0.000000000000e+000 0.000000000000e+000
          2.000000000000e+001 2.500000000000e+000 0.000000000000e+000
          2.000000000000e+001 5.000000000000e+000 0.000000000000e+000
          2.000000000000e+001 7.500000000000e+000 0.000000000000e+000
          2.000000000000e+001 1.000000000000e+001 0.000000000000e+000
          2.000000000000e+001 1.250000000000e+001 0.000000000000e+000
          2.000000000000e+001 1.500000000000e+001 0.000000000000e+000
          2.000000000000e+001 1.750000000000e+001 0.000000000000e+000
          2.000000000000e+001 2.000000000000e+001 0.000000000000e+000
          2.200000000000e+001 0.000000000000e+000 0.000000000000e+000
          2.200000000000e+001 2.500000000000e+000 0.000000000000e+000
          2.200000000000e+001 5.000000000000e+000 0.000000000000e+000
          2.200000000000e+001 7.500000000000e+000 0.000000000000e+000
          2.200000000000e+001 1.000000000000e+001 0.000000000000e+000
          2.200000000000e+001 1.250000000000e+001 0.000000000000e+000
          2.200000000000e+001 1.500000000000e+001 0.000000000000e+000
          2.200000000000e+001 1.750000000000e+001 0.000000000000e+000
          2.200000000000e+001 2.000000000000e+001 0.000000000000e+000
          2.400000000000e+001 0.000000000000e+000 0.000000000000e+000
          2.400000000000e+001 2.500000000000e+000 0.000000000000e+000
          2.400000000000e+001 5.000000000000e+000 0.000000000000e+000
          2.400000000000e+001 7.500000000000e+000 0.000000000000e+000
          2.400000000000e+001 1.000000000000e+001 0.000000000000e+000
          2.400000000000e+001 1.250000000000e+001 0.000000000000e+000
          2.400000000000e+001 1.500000000000e+001 0.000000000000e+000
          2.400000000000e+001 1.750000000000e+001 0.000000000000e+000
          2.400000000000e+001 2.000000000000e+001 0.000000000000e+000
          2.600000000000e+001 0.000000000000e+000 0.000000000000e+000
          2.600000000000e+001 2.500000000000e+000 0.000000000000e+000
          2.600000000000e+001 5.000000000000e+000 0.000000000000e+000
          2.600000000000e+001 7.500000000000e+000 0.000000000000e+000
          2.600000000000e+001 1.000000000000e+001 0.000000000000e+000
          2.600000000000e+001 1.250000000000e+001 0.000000000000e+000
          2.600000000000e+001 1.500000000000e+001 0.000000000000e+000
          2.600000000000e+001 1.750000000000e+001 0.000000000000e+000
          2.600000000000e+001 2.000000000000e+001 0.000000000000e+000
          2.800000000000e+001 0.000000000000e+000 0.000000000000e+000
          2.800000000000e+001 2.500000000000e+000 0.000000000000e+000
          2.800000000000e+001 5.000000000000e+000 0.000000000000e+000
          2.800000000000e+001 7.500000000000e+000 0.000000000000e+000
          2.800000000000e+001 1.000000000000e+001 0.000000000000e+000
          2.800000000000e+001 1.250000000000e+001 0.000000000000e+000
          2.800000000000e+001 1.500000000000e+001 0.000000000000e+000
          2.800000000000e+001 1.750000000000e+001 0.000000000000e+000
          2.800000000000e+001 2.000000000000e+001 0.000000000000e+000
          3.000000000000e+001 0.000000000000e+000 0.000000000000e+000
          3.000000000000e+001 2.500000000000e+000 0.000000000000e+000
          3.000000000000e+001 5.000000000000e+000 0.000000000000e+000
          3.000000000000e+001 7.500000000000e+000 0.000000000000e+000
[...]
      <PointData Scalars="LIQUID_PRESSURE">
        <DataArray type="Float64" Name="LIQUID_PRESSURE" format="ascii">
          1.022904481299e+006 1.022915323731e+006 1.022915323741e+006 1.022904481233e+006 1.022915323772e+006 1.022904481188e+006 1.022915323735e+006 1.022904481256e+006 1.022915323747e+006 1.022904481240e+006 1.022915323779e+006 1.022904481135e+006 1.022915323769e+006 1.022904481136e+006 1.022915323784e+006 1.022904481104e+006 1.022915323805e+006 1.022904481037e+006 1.022903415390e+006 1.022903415420e+006 1.022903415433e+006 1.022903415398e+006 1.022903415395e+006 1.022903415425e+006 1.022903415399e+006 1.022903415414e+006 1.022903415435e+006 1.022856915095e+006 1.022856915112e+006 1.022856915120e+006 1.022856915091e+006 1.022856915086e+006 1.022856915095e+006 1.022856915082e+006 1.022856915080e+006 1.022856915091e+006 1.022854654312e+006 1.022854654323e+006 1.022854654325e+006 1.022854654298e+006 1.022854654291e+006 1.022854654298e+006 1.022854654288e+006 1.022854654281e+006 1.022854654289e+006 1.022799351302e+006 1.022799351304e+006 1.022799351296e+006 1.022799351281e+006 1.022799351278e+006 1.022799351287e+006 1.022799351276e+006 1.022799351273e+006 1.022799351281e+006 1.022739930994e+006 1.022739930994e+006 1.022739930986e+006 1.022739930977e+006 1.022739930975e+006 1.022739930976e+006 1.022739930974e+006 1.022739930975e+006 1.022739930978e+006 1.022708329944e+006 1.022708329935e+006 1.022708329932e+006 1.022708329926e+006 1.022708329924e+006 1.022708329922e+006 1.022708329923e+006 1.022708329920e+006 1.022708329928e+006 1.022613579016e+006 1.022613579009e+006 1.022613579006e+006 1.022613579003e+006 1.022613579001e+006 1.022613578999e+006 1.022613579004e+006 1.022613579007e+006 1.022613579000e+006 1.022554876694e+006 1.022554876690e+006 1.022554876689e+006 1.022554876685e+006 1.022554876683e+006 1.022554876682e+006 1.022554876689e+006 1.022554876690e+006 1.022554876688e+006 1.022469864638e+006 1.022469864648e+006 1.022469864645e+006 1.022469864639e+006 1.022469864635e+006 1.022469864637e+006 1.022469864646e+006 1.022469864648e+006 1.022469864644e+006 1.022366784229e+006 1.022366784235e+006 1.022366784229e+006 1.022366784225e+006 1.022366784220e+006 1.022366784220e+006 1.022366784232e+006 1.022366784234e+006 1.022366784234e+006 1.022281879459e+006 1.022281879455e+006 1.022281879458e+006 1.022281879447e+006 1.022281879447e+006 1.022281879454e+006 1.022281879452e+006 1.022281879454e+006 1.022281879457e+006 1.022154359689e+006 1.022154359680e+006 1.022154359674e+006 1.022154359675e+006 1.022154359674e+006 1.022154359677e+006 1.022154359678e+006 1.022154359677e+006 1.022154359676e+006 1.022053031047e+006 1.022053031043e+006 1.022053031033e+006 1.022053031039e+006 1.022053031036e+006 1.022053031038e+006 1.022053031036e+006 1.022053031041e+006 1.022053031038e+006 1.021917588058e+006 1.021917588053e+006 1.021917588052e+006 1.021917588049e+006 1.021917588050e+006 1.021917588045e+006 1.021917588049e+006 1.021917588049e+006 1.021917588052e+006 1.021785163240e+006 1.021785163233e+006 1.021785163232e+006 1.021785163232e+006 1.021785163234e+006 1.021785163231e+006 1.021785163234e+006 1.021785163235e+006 1.021785163240e+006 1.021652626170e+006 1.021652626174e+006 1.021652626167e+006 1.021652626170e+006 1.021652626174e+006 1.021652626173e+006 1.021652626173e+006 1.021652626173e+006 1.021652626177e+006 1.021484161664e+006 1.021484161664e+006 1.021484161663e+006 1.021484161660e+006 1.021484161666e+006 1.021484161667e+006 1.021484161663e+006 1.021484161664e+006 1.021484161666e+006 1.021347813334e+006 1.021347813325e+006 1.021347813326e+006 1.021347813330e+006 1.021347813328e+006 1.021347813325e+006 1.021347813326e+006 1.021347813324e+006 1.021347813329e+006 1.021167458043e+006 1.021167458039e+006 1.021167458040e+006 1.021167458043e+006 1.021167458039e+006 1.021167458044e+006 1.021167458042e+006 1.021167458036e+006 1.021167458042e+006 1.021001679316e+006 1.021001679327e+006 1.021001679324e+006 1.021001679320e+006 1.021001679321e+006 1.021001679321e+006 1.021001679319e+006 1.021001679318e+006 1.021001679316e+006 1.020820801490e+006 1.020820801491e+006 1.020820801495e+006 1.020820801492e+006 1.020820801491e+006 1.020820801490e+006 1.020820801491e+006 1.020820801490e+006 1.020820801489e+006 1.020630076717e+006 1.020630076714e+006 1.020630076715e+006 1.020630076714e+006 1.020630076713e+006 1.020630076711e+006 1.020630076715e+006 1.020630076714e+006 1.020630076710e+006 1.020444156596e+006 1.020444156601e+006 1.020444156596e+006 1.020444156598e+006 1.020444156595e+006 1.020444156592e+006 1.020444156596e+006 1.020444156597e+006 1.020444156595e+006 1.020229724550e+006 1.020229724556e+006 1.020229724557e+006 1.020229724552e+006 1.020229724549e+006 1.020229724544e+006 1.020229724545e+006 1.020229724550e+006 1.020229724548e+006 1.020032543185e+006 1.020032543187e+006 1.020032543186e+006 1.020032543183e+006 1.020032543177e+006 1.020032543175e+006 1.020032543177e+006 1.020032543183e+006 1.020032543182e+006 1.019812607528e+006 1.019812607526e+006 1.019812607525e+006 1.019812607523e+006 1.019812607520e+006 1.019812607513e+006 1.019812607520e+006 1.019812607524e+006 1.019812607528e+006 1.019585228923e+006 1.019585228919e+006 1.019585228912e+006 1.019585228917e+006 1.019585228914e+006 1.019585228911e+006 1.019585228914e+006 1.019585228919e+006 1.019585228924e+006 1.019370654793e+006 1.019370654786e+006 1.019370654784e+006 1.019370654785e+006 1.019370654787e+006 1.019370654781e+006 1.019370654783e+006 1.019370654785e+006 1.019370654784e+006 1.019120370429e+006 1.019120370430e+006 1.019120370429e+006 1.019120370431e+006 1.019120370428e+006 1.019120370425e+006 1.019120370427e+006 1.019120370425e+006 1.019120370421e+006 1.018887623218e+006 1.018887623219e+006 1.018887623219e+006 1.018887623220e+006 1.018887623219e+006 1.018887623214e+006 1.018887623216e+006 1.018887623215e+006 1.018887623216e+006 1.018643736821e+006 1.018643736815e+006 1.018643736815e+006 1.018643736816e+006 1.018643736815e+006 1.018643736814e+006 1.018643736811e+006 1.018643736809e+006 1.018643736813e+006 1.018377634956e+006 1.018377634954e+006 1.018377634950e+006 1.018377634953e+006 1.018377634954e+006 1.018377634952e+006 1.018377634951e+006 1.018377634950e+006 1.018377634949e+006 1.018133927090e+006 1.018133927090e+006 1.018133927086e+006 1.018133927086e+006 1.018133927093e+006 1.018133927090e+006 1.018133927090e+006 1.018133927088e+006 1.018133927088e+006 1.017861295145e+006 1.017861295139e+006 1.017861295137e+006 1.017861295138e+006 1.017861295139e+006 1.017861295143e+006 1.017861295141e+006 1.017861295140e+006 1.017861295137e+006 1.017589653987e+006 1.017589653989e+006 1.017589653986e+006 1.017589653989e+006 1.017589653991e+006 1.017589653990e+006 1.017589653989e+006 1.017589653986e+006 1.017589653985e+006 1.017323139604e+006 1.017323139607e+006 1.017323139611e+006 1.017323139613e+006 1.017323139613e+006 1.017323139612e+006 1.017323139613e+006 1.017323139609e+006 1.017323139603e+006 1.017035000840e+006 1.017035000840e+006 1.017035000841e+006 1.017035000847e+006 1.017035000847e+006 1.017035000846e+006 1.017035000845e+006 1.017035000841e+006 1.017035000840e+006 1.016750162247e+006 1.016750162245e+006 1.016750162245e+006 1.016750162248e+006 1.016750162252e+006 1.016750162249e+006 1.016750162251e+006 1.016750162246e+006 1.016750162245e+006 1.016471075369e+006 1.016471075372e+006 1.016471075371e+006 1.016471075375e+006 1.016471075376e+006 1.016471075374e+006 1.016471075376e+006 1.016471075374e+006 1.016471075375e+006 1.016164367985e+006 1.016164367984e+006 1.016164367986e+006 1.016164367988e+006 1.016164367987e+006 1.016164367986e+006 1.016164367986e+006 1.016164367988e+006 1.016164367988e+006 1.015870084587e+006 1.015870084587e+006 1.015870084587e+006 1.015870084589e+006 1.015870084590e+006 1.015870084585e+006 1.015870084592e+006 1.015870084590e+006 1.015870084592e+006 1.015568883800e+006 1.015568883804e+006 1.015568883803e+006 1.015568883804e+006 1.015568883803e+006 1.015568883803e+006 1.015568883803e+006 1.015568883809e+006 1.015568883810e+006 1.015259340521e+006 1.015259340525e+006 1.015259340527e+006 1.015259340527e+006 1.015259340525e+006 1.015259340525e+006 1.015259340526e+006 1.015259340528e+006 1.015259340526e+006 1.014958213124e+006 1.014958213129e+006 1.014958213130e+006 1.014958213133e+006 1.014958213130e+006 1.014958213131e+006 1.014958213131e+006 1.014958213130e+006 1.014958213130e+006 1.014635132058e+006 1.014635132061e+006 1.014635132062e+006 1.014635132065e+006 1.014635132064e+006 1.014635132067e+006 1.014635132068e+006 1.014635132069e+006 1.014635132070e+006 1.014309057189e+006 1.014309057189e+006 1.014309057191e+006 1.014309057195e+006 1.014309057197e+006 1.014309057198e+006 1.014309057201e+006 1.014309057204e+006 1.014309057203e+006 1.014008814426e+006 1.014008814428e+006 1.014008814430e+006 1.014008814433e+006 1.014008814438e+006 1.014008814436e+006 1.014008814439e+006 1.014008814442e+006 1.014008814445e+006 1.013674695475e+006 1.013674695480e+006 1.013674695483e+006 1.013674695487e+006 1.013674695489e+006 1.013674695487e+006 1.013674695490e+006 1.013674695494e+006 1.013674695495e+006 1.013350135222e+006 1.013350135221e+006 1.013350135224e+006 1.013350135226e+006 1.013350135227e+006 1.013350135228e+006 1.013350135228e+006 1.013350135231e+006 1.013350135232e+006 1.013022596172e+006 1.013022596169e+006 1.013022596168e+006 1.013022596170e+006 1.013022596171e+006 1.013022596172e+006 1.013022596173e+006 1.013022596175e+006 1.013022596173e+006 1.012684121261e+006 1.012684121262e+006 1.012684121263e+006 1.012684121261e+006 1.012684121262e+006 1.012684121262e+006 1.012684121262e+006 1.012684121262e+006 1.012684121263e+006 1.012355753429e+006 1.012355753433e+006 1.012355753436e+006 1.012355753436e+006 1.012355753436e+006 1.012355753433e+006 1.012355753434e+006 1.012355753431e+006 1.012355753435e+006 1.012026142853e+006 1.012026142854e+006 1.012026142856e+006 1.012026142858e+006 1.012026142856e+006 1.012026142855e+006 1.012026142854e+006 1.012026142855e+006 1.012026142853e+006 1.011683548737e+006 1.011683548740e+006 1.011683548742e+006 1.011683548739e+006 1.011683548740e+006 1.011683548738e+006 1.011683548740e+006 1.011683548738e+006 1.011683548740e+006 1.011342216966e+006 1.011342216967e+006 1.011342216968e+006 1.011342216966e+006 1.011342216966e+006 1.011342216967e+006 1.011342216964e+006 1.011342216966e+006 1.011342216967e+006 1.011010978860e+006 1.011010978862e+006 1.011010978861e+006 1.011010978861e+006 1.011010978861e+006 1.011010978861e+006 1.011010978861e+006 1.011010978861e+006 1.011010978861e+006 1.010679456412e+006 1.010679456413e+006 1.010679456416e+006 1.010679456416e+006 1.010679456416e+006 1.010679456416e+006 1.010679456418e+006 1.010679456418e+006 1.010679456417e+006 1.010297067793e+006 1.010297067793e+006 1.010297067794e+006 1.010297067794e+006 1.010297067792e+006 1.010297067793e+006 1.010297067794e+006 1.010297067795e+006 1.010297067796e+006 1.009987125684e+006 1.009987125686e+006 1.009987125688e+006 1.009987125692e+006 1.009987125694e+006 1.009987125695e+006 1.009987125697e+006 1.009987125698e+006 1.009987125695e+006 1.009667103720e+006 1.009667103722e+006 1.009667103723e+006 1.009667103717e+006 1.009667103714e+006 1.009667103714e+006 1.009667103714e+006 1.009667103713e+006 1.009667103711e+006 1.009300902485e+006 1.009300902487e+006 1.009300902488e+006 1.009300902497e+006 1.009300902503e+006 1.009300902509e+006 1.009300902508e+006 1.009300902511e+006 1.009300902510e+006 1.008905842231e+006 1.008905842227e+006 1.008905842227e+006 1.008905842206e+006 1.008905842203e+006 1.008905842197e+006 1.008905842193e+006 1.008905842193e+006 1.008905842195e+006 1.008695960612e+006 1.008695960618e+006 1.008695960615e+006 1.008695960636e+006 1.008695960641e+006 1.008695960646e+006 1.008695960648e+006 1.008695960649e+006 1.008695960650e+006 1.008193361163e+006 1.008193361163e+006 1.008193361167e+006 1.008193361145e+006 1.008193361141e+006 1.008193361139e+006 1.008193361133e+006 1.008193361131e+006 1.008193361130e+006 1.008017204272e+006 1.008017204275e+006 1.008017204276e+006 1.008017204281e+006 1.008017204281e+006 1.008017204282e+006 1.008017204282e+006 1.008017204282e+006 1.008017204280e+006 1.007567349923e+006 1.007567349930e+006 1.007567349922e+006 1.007567349933e+006 1.007567349928e+006 1.007567349930e+006 1.007567349928e+006 1.007567349930e+006 1.007567349932e+006 1.007253837484e+006 1.007253837487e+006 1.007253837482e+006 1.007253837485e+006 1.007253837481e+006 1.007253837480e+006 1.007253837480e+006 1.007253837479e+006 1.007253837482e+006 1.006948760045e+006 1.006948760047e+006 1.006948760045e+006 1.006948760046e+006 1.006948760043e+006 1.006948760043e+006 1.006948760041e+006 1.006948760043e+006 1.006948760042e+006 1.006606051840e+006 1.006606051839e+006 1.006606051839e+006 1.006606051839e+006 1.006606051838e+006 1.006606051838e+006 1.006606051839e+006 1.006606051837e+006 1.006606051839e+006 1.006284496879e+006 1.006284496880e+006 1.006284496880e+006 1.006284496880e+006 1.006284496880e+006 1.006284496882e+006 1.006284496880e+006 1.006284496880e+006 1.006284496880e+006 1.005947559669e+006 1.005947559670e+006 1.005947559670e+006 1.005947559671e+006 1.005947559670e+006 1.005947559670e+006 1.005947559670e+006 1.005947559669e+006 1.005947559669e+006 1.005623456294e+006 1.005623456294e+006 1.005623456295e+006 1.005623456295e+006 1.005623456294e+006 1.005623456294e+006 1.005623456293e+006 1.005623456293e+006 1.005623456293e+006 1.005340215099e+006 1.005340215098e+006 1.005340215099e+006 1.005340215100e+006 1.005340215099e+006 1.005340215099e+006 1.005340215098e+006 1.005340215099e+006 1.005340215097e+006 1.005010987719e+006 1.005010987718e+006 1.005010987719e+006 1.005010987719e+006 1.005010987719e+006 1.005010987719e+006 1.005010987719e+006 1.005010987718e+006 1.005010987721e+006 1.004716840088e+006 1.004716840089e+006 1.004716840089e+006 1.004716840089e+006 1.004716840089e+006 1.004716840088e+006 1.004716840089e+006 1.004716840088e+006 1.004716840087e+006 1.004436469447e+006 1.004436469444e+006 1.004436469446e+006 1.004436469446e+006 1.004436469446e+006 1.004436469447e+006 1.004436469445e+006 1.004436469446e+006 1.004436469445e+006 1.004135618120e+006 1.004135618119e+006 1.004135618118e+006 1.004135618120e+006 1.004135618121e+006 1.004135618119e+006 1.004135618119e+006 1.004135618120e+006 1.004135618119e+006 1.003892446506e+006 1.003892446507e+006 1.003892446508e+006 1.003892446507e+006 1.003892446508e+006 1.003892446508e+006 1.003892446508e+006 1.003892446507e+006 1.003892446508e+006 1.003665055183e+006 1.003665055183e+006 1.003665055185e+006 1.003665055184e+006 1.003665055185e+006 1.003665055185e+006 1.003665055184e+006 1.003665055184e+006 1.003665055184e+006 1.003481794254e+006 1.003481794254e+006 1.003481794255e+006 1.003481794255e+006 1.003481794255e+006 1.003481794255e+006 1.003481794255e+006 1.003481794255e+006 1.003481794254e+006 1.003298535352e+006 1.003298535352e+006 1.003298535352e+006 1.003298535353e+006 1.003298535353e+006 1.003298535352e+006 1.003298535352e+006 1.003298535352e+006 1.003298535352e+006 1.003115277491e+006 1.003115277491e+006 1.003115277491e+006 1.003115277492e+006 1.003115277492e+006 1.003115277491e+006 1.003115277491e+006 1.003115277491e+006 1.003115277491e+006 1.002932020670e+006 1.002932020670e+006 1.002932020671e+006 1.002932020670e+006 1.002932020670e+006 1.002932020671e+006 1.002932020670e+006 1.002932020670e+006 1.002932020670e+006 1.002748764853e+006 1.002748764853e+006 1.002748764853e+006 1.002748764853e+006 1.002748764853e+006 1.002748764853e+006 1.002748764853e+006 1.002748764852e+006 1.002748764852e+006 1.002565509973e+006 1.002565509973e+006 1.002565509973e+006 1.002565509972e+006 1.002565509972e+006 1.002565509972e+006 1.002565509972e+006 1.002565509972e+006 1.002565509972e+006 1.002382255956e+006 1.002382255956e+006 1.002382255956e+006 1.002382255956e+006 1.002382255956e+006 1.002382255956e+006 1.002382255956e+006 1.002382255956e+006 1.002382255956e+006 1.002199002732e+006 1.002199002732e+006 1.002199002732e+006 1.002199002732e+006 1.002199002732e+006 1.002199002732e+006 1.002199002732e+006 1.002199002732e+006 1.002199002732e+006 1.002015750231e+006 1.002015750231e+006 1.002015750231e+006 1.002015750231e+006 1.002015750231e+006 1.002015750231e+006 1.002015750231e+006 1.002015750231e+006 1.002015750231e+006 1.001832498382e+006 1.001832498382e+006 1.001832498382e+006 1.001832498382e+006 1.001832498382e+006 1.001832498382e+006 1.001832498382e+006 1.001832498382e+006 1.001832498382e+006 1.001649247114e+006 1.001649247114e+006 1.001649247113e+006 1.001649247113e+006 1.001649247114e+006 1.001649247114e+006 1.001649247114e+006 1.001649247113e+006 1.001649247114e+006 1.001465996355e+006 1.001465996355e+006 1.001465996355e+006 1.001465996355e+006 1.001465996355e+006 1.001465996355e+006 1.001465996355e+006 1.001465996355e+006 1.001465996355e+006 1.001282746035e+006 1.001282746035e+006 1.001282746035e+006 1.001282746035e+006 1.001282746035e+006 1.001282746035e+006 1.001282746035e+006 1.001282746035e+006 1.001282746035e+006 1.001099496081e+006 1.001099496081e+006 1.001099496081e+006 1.001099496080e+006 1.001099496080e+006 1.001099496081e+006 1.001099496081e+006 1.001099496081e+006 1.001099496081e+006 1.000916246420e+006 1.000916246420e+006 1.000916246420e+006 1.000916246420e+006 1.000916246420e+006 1.000916246421e+006 1.000916246421e+006 1.000916246421e+006 1.000916246421e+006 1.000732996982e+006 1.000732996982e+006 1.000732996982e+006 1.000732996982e+006 1.000732996982e+006 1.000732996982e+006 1.000732996982e+006 1.000732996982e+006 1.000732996982e+006 1.000549747694e+006 1.000549747694e+006 1.000549747694e+006 1.000549747694e+006 1.000549747694e+006 1.000549747694e+006 1.000549747694e+006 1.000549747694e+006 1.000549747694e+006 1.000366498482e+006 1.000366498482e+006 1.000366498482e+006 1.000366498482e+006 1.000366498482e+006 1.000366498482e+006 1.000366498482e+006 1.000366498482e+006 1.000366498482e+006 1.000183249275e+006 1.000183249275e+006 1.000183249275e+006 1.000183249275e+006 1.000183249275e+006 1.000183249275e+006 1.000183249275e+006 1.000183249275e+006 1.000183249275e+006 1.000000000000e+006 1.000000000000e+006 1.000000000000e+006 1.000000000000e+006 1.000000000000e+006 1.000000000000e+006 1.000000000000e+006 1.000000000000e+006 1.000000000000e+006 
        </DataArray>
        <DataArray type="Float64" Name="MOLAR_FRACTION" format="ascii">