<?xml version="1.0"?>
<VTKFile type="UnstructuredGrid" version="0.1" byte_order="LittleEndian">
  <UnstructuredGrid>
    <Piece NumberOfPoints="909" NumberOfCells="800">
      <Points>
        <DataArray type="Float64" NumberOfComponents="3" format="ascii">
          0.000000000000e+000 0.000000000000e+000 0.000000000000e+000
          2.000000000000e+000 0.000000000000e+000 0.000000000000e+000
          2.000000000000e+000 2.500000000000e+000 0.000000000000e+000
          0.000000000000e+000 2.500000000000e+000 0.000000000000e+000
          2.000000000000e+000 5.000000000000e+000 0.000000000000e+000
          0.000000000000e+000 5.000000000000e+000 0.000000000000e+000
          2.000000000000e+000 7.500000000000e+000 0.000000000000e+000
          0.000000000000e+000 7.500000000000e+000 0.000000000000e+000
          2.000000000000e+000 1.000000000000e+001 0.000000000000e+000
          0.000000000000e+000 1.000000000000e+001 0.000000000000e+000
          2.000000000000e+000 1.250000000000e+001 0.000000000000e+000
          0.000000000000e+000 1.250000000000e+001 0.000000000000e+000
          2.000000000000e+000 1.500000000000e+001 0.000000000000e+000
          0.000000000000e+000 1.500000000000e+001 0.000000000000e+000
          2.000000000000e+000 1.750000000000e+001 0.000000000000e+000
          0.000000000000e+000 1.750000000000e+001 0.000000000000e+000
          2.000000000000e+000 2.000000000000e+001 0.000000000000e+000
          0.000000000000e+000 2.000000000000e+001 0.000000000000e+000
          4.000000000000e+000 0.000000000000e+000 0.000000000000e+000
          4.000000000000e+000 2.500000000000e+000 0.000000000000e+000
          4.000000000000e+000 5.000000000000e+000 0.000000000000e+000
          4.000000000000e+000 7.500000000000e+000 0.000000000000e+000
          4.000000000000e+000 1.000000000000e+001 0.000000000000e+000
          4.000000000000e+000 1.250000000000e+001 0.000000000000e+000
          4.000000000000e+000 1.500000000000e+001 0.000000000000e+000
          4.000000000000e+000 1.750000000000e+001 0.000000000000e+000
          4.000000000000e+000 2.000000000000e+001 0.000000000000e+000
          6.000000000000e+000 0.000000000000e+000 0.000000000000e+000
          6.000000000000e+000 2.500000000000e+000 0.000000000000e+000
          6.000000000000e+000 5.000000000000e+000 0.000000000000e+000
          6.000000000000e+000 7.500000000000e+000 0.000000000000e+000
          6.000000000000e+000 1.000000000000e+001 0.000000000000e+000
          6.000000000000e+000 1.250000000000e+001 0.000000000000e+000
          6.000000000000e+000 1.500000000000e+001 0.000000000000e+000
          6.000000000000e+000 1.750000000000e+001 0.000000000000e+000
          6.000000000000e+000 2.000000000000e+001 0.000000000000e+000
          8.000000000000e+000 0.000000000000e+000 0.000000000000e+000
          8.000000000000e+000 2.500000000000e+000 0.000000000000e+000
          8.000000000000e+000 5.000000000000e+000 0.000000000000e+000
          8.000000000000e+000 7.500000000000e+000 0.000000000000e+000
          8.000000000000e+000 1.000000000000e+001 0.000000000000e+000
          8.000000000000e+000 1.250000000000e+001 0.000000000000e+000
          8.000000000000e+000 1.500000000000e+001 0.000000000000e+000
          8.000000000000e+000 1.750000000000e+001 0.000000000000e+000
          8.000000000000e+000 2.000000000000e+001 0.000000000000e+000
          1.000000000000e+001 0.000000000000e+000 0.000000000000e+000
          1.000000000000e+001 2.500000000000e+000 0.000000000000e+000
          1.000000000000e+001 5.000000000000e+000 0.000000000000e+000
          1.000000000000e+001 7.500000000000e+000 0.000000000000e+000
          1.000000000000e+001 1.000000000000e+001 0.000000000000e+000
          1.000000000000e+001 1.250000000000e+001 0.000000000000e+000
          1.000000000000e+001 1.500000000000e+001 0.000000000000e+000
          1.000000000000e+001 1.750000000000e+001 0.000000000000e+000
          1.000000000000e+001 2.000000000000e+001 0.000000000000e+000
          1.200000000000e+001 0.000000000000e+000 0.000000000000e+000
          1.200000000000e+001 2.500000000000e+000 0.000000000000e+000
          1.200000000000e+001 5.000000000000e+000 0.000000000000e+000
          1.200000000000e+001 7.500000000000e+000 0.000000000000e+000
          1.200000000000e+001 1.000000000000e+001 0.000000000000e+000
          1.200000000000e+001 1.250000000000e+001 0.000000000000e+000
          1.200000000000e+001 1.500000000000e+001 0.000000000000e+000
          1.200000000000e+001 1.750000000000e+001 0.000000000000e+000
          1.200000000000e+001 2.000000000000e+001 0.000000000000e+000
          1.400000000000e+001 0.000000000000e+000 0.000000000000e+000
          1.400000000000e+001 2.500000000000e+000 0.000000000000e+000
          1.400000000000e+001 5.000000000000e+000 0.000000000000e+000
          1.400000000000e+001 7.500000000000e+000 0.000000000000e+000
          1.400000000000e+001 1.000000000000e+001 0.000000000000e+000
          1.400000000000e+001 1.250000000000e+001 0.000000000000e+000
          1.400000000000e+001 1.500000000000e+001 0.000000000000e+000
          1.400000000000e+001 1.750000000000e+001 0.000000000000e+000
          1.400000000000e+001 2.000000000000e+001 0.000000000000e+000
          1.600000000000e+001 0.000000000000e+000 0.000000000000e+000
          1.600000000000e+001 2.500000000000e+000 0.000000000000e+000
          1.600000000000e+001 5.000000000000e+000 0.000000000000e+000
          1.600000000000e+001 7.500000000000e+000 0.000000000000e+000
          1.600000000000e+001 1.000000000000e+001 0.000000000000e+000
          1.600000000000e+001 1.250000000000e+001 0.000000000000e+000
          1.600000000000e+001 1.500000000000e+001 0.000000000000e+000
          1.600000000000e+001 1.750000000000e+001 0.000000000000e+000
          1.600000000000e+001 2.000000000000e+001 0.000000000000e+000
          1.800000000000e+001 0.000000000000e+000 0.000000000000e+000
          1.800000000000e+001 2.500000000000e+000 0.000000000000e+000
          1.800000000000e+001 5.000000000000e+000 0.000000000000e+000
          1.800000000000e+001 7.500000000000e+000 0.000000000000e+000
          1.800000000000e+001 1.000000000000e+001 0.000000000000e+000
          1.800000000000e+001 1.250000000000e+001 0.000000000000e+000
          1.800000000000e+001 1.500000000000e+001 0.000000000000e+000
          1.800000000000e+001 1.750000000000e+001 0.000000000000e+000
          1.800000000000e+001 2.000000000000e+001 0.000000000000e+000
          2.000000000000e+001 0.000000000000e+000 0.000000000000e+000
          2.000000000000e+001 2.500000000000e+000 0.000000000000e+000
          2.000000000000e+001 5.000000000000e+000 0.000000000000e+000
          2.000000000000e+001 7.500000000000e+000 0.000000000000e+000
          2.000000000000e+001 1.000000000000e+001 0.000000000000e+000
          2.000000000000e+001 1.250000000000e+001 0.000000000000e+000
          2.000000000000e+001 1.500000000000e+001 0.000000000000e+000
          2.000000000000e+001 1.750000000000e+001 0.000000000000e+000
          2.000000000000e+001 2.000000000000e+001 0.000000000000e+000
          2.200000000000e+001 0.000000000000e+000 0.000000000000e+000
          2.200000000000e+001 2.500000000000e+000 0.000000000000e+000
          2.200000000000e+001 5.000000000000e+000 0.000000000000e+000
          2.200000000000e+001 7.500000000000e+000 0.000000000000e+000
          2.200000000000e+001 1.000000000000e+001 0.000000000000e+000
          2.200000000000e+001 1.250000000000e+001 0.000000000000e+000
          2.200000000000e+001 1.500000000000e+001 0.000000000000e+000
          2.200000000000e+001 1.750000000000e+001 0.000000000000e+000
          2.200000000000e+001 2.000000000000e+001 0.000000000000e+000
          2.400000000000e+001 0.000000000000e+000 0.000000000000e+000
          2.400000000000e+001 2.500000000000e+000 0.000000000000e+000
          2.400000000000e+001 5.000000000000e+000 0.000000000000e+000
          2.400000000000e+001 7.500000000000e+000 0.000000000000e+000
          2.400000000000e+001 1.000000000000e+001 0.000000000000e+000
          2.400000000000e+001 1.250000000000e+001 0.000000000000e+000
          2.400000000000e+001 1.500000000000e+001 0.000000000000e+000
          2.400000000000e+001 1.750000000000e+001 0.000000000000e+000
          2.400000000000e+001 2.000000000000e+001 0.000000000000e+000
          2.600000000000e+001 0.000000000000e+000 0.000000000000e+000
          2.600000000000e+001 2.500000000000e+000 0.000000000000e+000
          2.600000000000e+001 5.000000000000e+000 0.000000000000e+000
          2.600000000000e+001 7.500000000000e+000 0.000000000000e+000
          2.600000000000e+001 1.000000000000e+001 0.000000000000e+000
          2.600000000000e+001 1.250000000000e+001 0.000000000000e+000
          2.600000000000e+001 1.500000000000e+001 0.000000000000e+000
          2.600000000000e+001 1.750000000000e+001 0.000000000000e+000
          2.600000000000e+001 2.000000000000e+001 0.000000000000e+000
          2.800000000000e+001 0.000000000000e+000 0.000000000000e+000
          2.800000000000e+001 2.500000000000e+000 0.000000000000e+000
          2.800000000000e+001 5.000000000000e+000 0.000000000000e+000
          2.800000000000e+001 7.500000000000e+000 0.000000000000e+000
          2.800000000000e+001 1.000000000000e+001 0.000000000000e+000
          2.800000000000e+001 1.250000000000e+001 0.000000000000e+000
          2.800000000000e+001 1.500000000000e+001 0.000000000000e+000
          2.800000000000e+001 1.750000000000e+001 0.000000000000e+000
          2.800000000000e+001 2.000000000000e+001 0.000000000000e+000
          3.000000000000e+001 0.000000000000e+000 0.000000000000e+000
          3.000000000000e+001 2.500000000000e+000 0.000000000000e+000
          3.000000000000e+001 5.000000000000e+000 0.000000000000e+000
          3.000000000000e+001 7.500000000000e+000 0.000000000000e+000
[...]
      <PointData Scalars="LIQUID_PRESSURE">
        <DataArray type="Float64" Name="LIQUID_PRESSURE" format="ascii">
          1.025212003547e+006 1.025222658493e+006 1.025222658501e+006 1.025212003475e+006 1.025222658529e+006 1.025212003424e+006 1.025222658491e+006 1.025212003495e+006 1.025222658504e+006 1.025212003477e+006 1.025222658540e+006 1.025212003373e+006 1.025222658529e+006 1.025212003373e+006 1.025222658547e+006 1.025212003345e+006 1.025222658570e+006 1.025212003281e+006 1.025209313967e+006 1.025209313998e+006 1.025209314011e+006 1.025209313974e+006 1.025209313974e+006 1.025209314007e+006 1.025209313983e+006 1.025209313998e+006 1.025209314019e+006 1.025160523750e+006 1.025160523764e+006 1.025160523774e+006 1.025160523746e+006 1.025160523745e+006 1.025160523756e+006 1.025160523740e+006 1.025160523739e+006 1.025160523748e+006 1.025155551385e+006 1.025155551394e+006 1.025155551399e+006 1.025155551374e+006 1.025155551367e+006 1.025155551374e+006 1.025155551365e+006 1.025155551356e+006 1.025155551362e+006 1.025096083191e+006 1.025096083194e+006 1.025096083188e+006 1.025096083176e+006 1.025096083171e+006 1.025096083180e+006 1.025096083169e+006 1.025096083165e+006 1.025096083172e+006 1.025031922712e+006 1.025031922713e+006 1.025031922708e+006 1.025031922700e+006 1.025031922699e+006 1.025031922697e+006 1.025031922695e+006 1.025031922695e+006 1.025031922699e+006 1.024994899961e+006 1.024994899954e+006 1.024994899955e+006 1.024994899946e+006 1.024994899946e+006 1.024994899941e+006 1.024994899942e+006 1.024994899940e+006 1.024994899945e+006 1.024893453577e+006 1.024893453573e+006 1.024893453569e+006 1.024893453566e+006 1.024893453563e+006 1.024893453561e+006 1.024893453565e+006 1.024893453568e+006 1.024893453564e+006 1.024827677456e+006 1.024827677452e+006 1.024827677450e+006 1.024827677447e+006 1.024827677444e+006 1.024827677443e+006 1.024827677450e+006 1.024827677453e+006 1.024827677452e+006 1.024734479186e+006 1.024734479195e+006 1.024734479193e+006 1.024734479188e+006 1.024734479183e+006 1.024734479183e+006 1.024734479193e+006 1.024734479197e+006 1.024734479192e+006 1.024622373674e+006 1.024622373681e+006 1.024622373678e+006 1.024622373674e+006 1.024622373666e+006 1.024622373669e+006 1.024622373683e+006 1.024622373685e+006 1.024622373683e+006 1.024527736960e+006 1.024527736958e+006 1.024527736961e+006 1.024527736952e+006 1.024527736952e+006 1.024527736960e+006 1.024527736959e+006 1.024527736960e+006 1.024527736960e+006 1.024389478802e+006 1.024389478793e+006 1.024389478793e+006 1.024389478792e+006 1.024389478793e+006 1.024389478794e+006 1.024389478795e+006 1.024389478795e+006 1.024389478792e+006 1.024276896295e+006 1.024276896293e+006 1.024276896287e+006 1.024276896294e+006 1.024276896289e+006 1.024276896291e+006 1.024276896292e+006 1.024276896295e+006 1.024276896291e+006 1.024129140838e+006 1.024129140834e+006 1.024129140835e+006 1.024129140834e+006 1.024129140834e+006 1.024129140830e+006 1.024129140833e+006 1.024129140833e+006 1.024129140836e+006 1.023983791042e+006 1.023983791036e+006 1.023983791036e+006 1.023983791035e+006 1.023983791038e+006 1.023983791034e+006 1.023983791037e+006 1.023983791037e+006 1.023983791039e+006 1.023837413453e+006 1.023837413456e+006 1.023837413453e+006 1.023837413453e+006 1.023837413458e+006 1.023837413457e+006 1.023837413452e+006 1.023837413454e+006 1.023837413454e+006 1.023654234095e+006 1.023654234096e+006 1.023654234096e+006 1.023654234096e+006 1.023654234101e+006 1.023654234101e+006 1.023654234094e+006 1.023654234094e+006 1.023654234093e+006 1.023502717420e+006 1.023502717415e+006 1.023502717417e+006 1.023502717423e+006 1.023502717423e+006 1.023502717418e+006 1.023502717417e+006 1.023502717412e+006 1.023502717416e+006 1.023306083873e+006 1.023306083875e+006 1.023306083878e+006 1.023306083882e+006 1.023306083881e+006 1.023306083883e+006 1.023306083880e+006 1.023306083872e+006 1.023306083875e+006 1.023123503689e+006 1.023123503702e+006 1.023123503700e+006 1.023123503699e+006 1.023123503701e+006 1.023123503699e+006 1.023123503697e+006 1.023123503695e+006 1.023123503694e+006 1.022925006870e+006 1.022925006872e+006 1.022925006875e+006 1.022925006877e+006 1.022925006876e+006 1.022925006874e+006 1.022925006875e+006 1.022925006876e+006 1.022925006875e+006 1.022715977157e+006 1.022715977158e+006 1.022715977157e+006 1.022715977161e+006 1.022715977160e+006 1.022715977159e+006 1.022715977164e+006 1.022715977163e+006 1.022715977161e+006 1.022511013031e+006 1.022511013039e+006 1.022511013035e+006 1.022511013038e+006 1.022511013037e+006 1.022511013035e+006 1.022511013038e+006 1.022511013042e+006 1.022511013039e+006 1.022276679305e+006 1.022276679311e+006 1.022276679313e+006 1.022276679312e+006 1.022276679311e+006 1.022276679304e+006 1.022276679307e+006 1.022276679310e+006 1.022276679309e+006 1.022059156942e+006 1.022059156945e+006 1.022059156944e+006 1.022059156944e+006 1.022059156939e+006 1.022059156936e+006 1.022059156937e+006 1.022059156942e+006 1.022059156940e+006 1.021817952525e+006 1.021817952523e+006 1.021817952522e+006 1.021817952521e+006 1.021817952519e+006 1.021817952511e+006 1.021817952518e+006 1.021817952520e+006 1.021817952522e+006 1.021568776919e+006 1.021568776919e+006 1.021568776910e+006 1.021568776915e+006 1.021568776912e+006 1.021568776907e+006 1.021568776910e+006 1.021568776914e+006 1.021568776917e+006 1.021331828430e+006 1.021331828424e+006 1.021331828424e+006 1.021331828425e+006 1.021331828424e+006 1.021331828418e+006 1.021331828419e+006 1.021331828419e+006 1.021331828419e+006 1.021058212176e+006 1.021058212177e+006 1.021058212177e+006 1.021058212179e+006 1.021058212177e+006 1.021058212171e+006 1.021058212172e+006 1.021058212168e+006 1.021058212165e+006 1.020801847235e+006 1.020801847235e+006 1.020801847235e+006 1.020801847237e+006 1.020801847235e+006 1.020801847228e+006 1.020801847230e+006 1.020801847226e+006 1.020801847226e+006 1.020533512788e+006 1.020533512784e+006 1.020533512783e+006 1.020533512784e+006 1.020533512783e+006 1.020533512779e+006 1.020533512777e+006 1.020533512773e+006 1.020533512774e+006 1.020242297389e+006 1.020242297389e+006 1.020242297385e+006 1.020242297387e+006 1.020242297388e+006 1.020242297384e+006 1.020242297382e+006 1.020242297380e+006 1.020242297379e+006 1.019973188608e+006 1.019973188607e+006 1.019973188605e+006 1.019973188605e+006 1.019973188608e+006 1.019973188604e+006 1.019973188601e+006 1.019973188599e+006 1.019973188597e+006 1.019674227872e+006 1.019674227867e+006 1.019674227866e+006 1.019674227867e+006 1.019674227866e+006 1.019674227868e+006 1.019674227863e+006 1.019674227861e+006 1.019674227859e+006 1.019375852288e+006 1.019375852293e+006 1.019375852290e+006 1.019375852292e+006 1.019375852290e+006 1.019375852290e+006 1.019375852288e+006 1.019375852285e+006 1.019375852284e+006 1.019082134049e+006 1.019082134052e+006 1.019082134055e+006 1.019082134053e+006 1.019082134054e+006 1.019082134054e+006 1.019082134054e+006 1.019082134051e+006 1.019082134045e+006 1.018766035758e+006 1.018766035760e+006 1.018766035760e+006 1.018766035763e+006 1.018766035765e+006 1.018766035763e+006 1.018766035763e+006 1.018766035760e+006 1.018766035761e+006 1.018452972124e+006 1.018452972123e+006 1.018452972124e+006 1.018452972127e+006 1.018452972128e+006 1.018452972127e+006 1.018452972130e+006 1.018452972124e+006 1.018452972125e+006 1.018145162788e+006 1.018145162790e+006 1.018145162790e+006 1.018145162793e+006 1.018145162793e+006 1.018145162793e+006 1.018145162795e+006 1.018145162793e+006 1.018145162794e+006 1.017808836290e+006 1.017808836289e+006 1.017808836291e+006 1.017808836291e+006 1.017808836292e+006 1.017808836293e+006 1.017808836292e+006 1.017808836293e+006 1.017808836292e+006 1.017484796458e+006 1.017484796457e+006 1.017484796458e+006 1.017484796461e+006 1.017484796461e+006 1.017484796460e+006 1.017484796464e+006 1.017484796462e+006 1.017484796462e+006 1.017153456727e+006 1.017153456730e+006 1.017153456728e+006 1.017153456730e+006 1.017153456731e+006 1.017153456730e+006 1.017153456731e+006 1.017153456732e+006 1.017153456733e+006 1.016813375260e+006 1.016813375264e+006 1.016813375265e+006 1.016813375266e+006 1.016813375265e+006 1.016813375265e+006 1.016813375265e+006 1.016813375264e+006 1.016813375261e+006 1.016481180729e+006 1.016481180732e+006 1.016481180734e+006 1.016481180735e+006 1.016481180732e+006 1.016481180733e+006 1.016481180732e+006 1.016481180731e+006 1.016481180729e+006 1.016126154005e+006 1.016126154009e+006 1.016126154010e+006 1.016126154011e+006 1.016126154010e+006 1.016126154010e+006 1.016126154012e+006 1.016126154011e+006 1.016126154012e+006 1.015768182797e+006 1.015768182797e+006 1.015768182800e+006 1.015768182801e+006 1.015768182802e+006 1.015768182801e+006 1.015768182804e+006 1.015768182807e+006 1.015768182806e+006 1.015436293765e+006 1.015436293767e+006 1.015436293768e+006 1.015436293770e+006 1.015436293773e+006 1.015436293771e+006 1.015436293772e+006 1.015436293776e+006 1.015436293779e+006 1.015069584639e+006 1.015069584644e+006 1.015069584645e+006 1.015069584646e+006 1.015069584648e+006 1.015069584646e+006 1.015069584648e+006 1.015069584653e+006 1.015069584654e+006 1.014712004374e+006 1.014712004374e+006 1.014712004374e+006 1.014712004376e+006 1.014712004376e+006 1.014712004377e+006 1.014712004378e+006 1.014712004381e+006 1.014712004384e+006 1.014351053913e+006 1.014351053909e+006 1.014351053907e+006 1.014351053909e+006 1.014351053910e+006 1.014351053912e+006 1.014351053913e+006 1.014351053916e+006 1.014351053915e+006 1.013978881913e+006 1.013978881914e+006 1.013978881913e+006 1.013978881912e+006 1.013978881914e+006 1.013978881915e+006 1.013978881916e+006 1.013978881918e+006 1.013978881919e+006 1.013617121182e+006 1.013617121185e+006 1.013617121187e+006 1.013617121186e+006 1.013617121188e+006 1.013617121187e+006 1.013617121189e+006 1.013617121188e+006 1.013617121190e+006 1.013253764390e+006 1.013253764391e+006 1.013253764391e+006 1.013253764393e+006 1.013253764393e+006 1.013253764393e+006 1.013253764392e+006 1.013253764394e+006 1.013253764393e+006 1.012877009867e+006 1.012877009870e+006 1.012877009870e+006 1.012877009867e+006 1.012877009867e+006 1.012877009866e+006 1.012877009868e+006 1.012877009867e+006 1.012877009870e+006 1.012501195063e+006 1.012501195064e+006 1.012501195064e+006 1.012501195062e+006 1.012501195061e+006 1.012501195061e+006 1.012501195060e+006 1.012501195061e+006 1.012501195063e+006 1.012135830676e+006 1.012135830678e+006 1.012135830676e+006 1.012135830676e+006 1.012135830676e+006 1.012135830675e+006 1.012135830675e+006 1.012135830676e+006 1.012135830675e+006 1.011768956021e+006 1.011768956022e+006 1.011768956023e+006 1.011768956022e+006 1.011768956022e+006 1.011768956021e+006 1.011768956022e+006 1.011768956023e+006 1.011768956021e+006 1.011351047362e+006 1.011351047361e+006 1.011351047361e+006 1.011351047360e+006 1.011351047358e+006 1.011351047357e+006 1.011351047358e+006 1.011351047360e+006 1.011351047359e+006 1.011007517921e+006 1.011007517923e+006 1.011007517923e+006 1.011007517926e+006 1.011007517926e+006 1.011007517927e+006 1.011007517929e+006 1.011007517930e+006 1.011007517928e+006 1.010653636586e+006 1.010653636588e+006 1.010653636588e+006 1.010653636582e+006 1.010653636578e+006 1.010653636577e+006 1.010653636576e+006 1.010653636576e+006 1.010653636575e+006 1.010250892720e+006 1.010250892721e+006 1.010250892722e+006 1.010250892732e+006 1.010250892737e+006 1.010250892742e+006 1.010250892742e+006 1.010250892745e+006 1.010250892743e+006 1.009819800210e+006 1.009819800208e+006 1.009819800207e+006 1.009819800188e+006 1.009819800184e+006 1.009819800177e+006 1.009819800174e+006 1.009819800173e+006 1.009819800175e+006 1.009577324262e+006 1.009577324266e+006 1.009577324266e+006 1.009577324287e+006 1.009577324294e+006 1.009577324298e+006 1.009577324298e+006 1.009577324301e+006 1.009577324304e+006 1.009038027693e+006 1.009038027695e+006 1.009038027700e+006 1.009038027677e+006 1.009038027674e+006 1.009038027671e+006 1.009038027665e+006 1.009038027663e+006 1.009038027662e+006 1.008829375439e+006 1.008829375443e+006 1.008829375441e+006 1.008829375446e+006 1.008829375447e+006 1.008829375449e+006 1.008829375448e+006 1.008829375448e+006 1.008829375448e+006 1.008342902270e+006 1.008342902276e+006 1.008342902268e+006 1.008342902277e+006 1.008342902274e+006 1.008342902276e+006 1.008342902275e+006 1.008342902275e+006 1.008342902278e+006 1.007994083033e+006 1.007994083033e+006 1.007994083029e+006 1.007994083032e+006 1.007994083028e+006 1.007994083028e+006 1.007994083028e+006 1.007994083027e+006 1.007994083030e+006 1.007656239150e+006 1.007656239151e+006 1.007656239148e+006 1.007656239151e+006 1.007656239148e+006 1.007656239148e+006 1.007656239147e+006 1.007656239149e+006 1.007656239148e+006 1.007280001796e+006 1.007280001795e+006 1.007280001795e+006 1.007280001797e+006 1.007280001796e+006 1.007280001796e+006 1.007280001797e+006 1.007280001796e+006 1.007280001798e+006 1.006924559343e+006 1.006924559345e+006 1.006924559346e+006 1.006924559346e+006 1.006924559347e+006 1.006924559348e+006 1.006924559347e+006 1.006924559347e+006 1.006924559346e+006 1.006553644429e+006 1.006553644430e+006 1.006553644431e+006 1.006553644432e+006 1.006553644432e+006 1.006553644431e+006 1.006553644432e+006 1.006553644431e+006 1.006553644431e+006 1.006196042117e+006 1.006196042117e+006 1.006196042119e+006 1.006196042119e+006 1.006196042118e+006 1.006196042118e+006 1.006196042117e+006 1.006196042117e+006 1.006196042117e+006 1.005881484911e+006 1.005881484911e+006 1.005881484912e+006 1.005881484913e+006 1.005881484913e+006 1.005881484911e+006 1.005881484911e+006 1.005881484911e+006 1.005881484909e+006 1.005520818901e+006 1.005520818900e+006 1.005520818901e+006 1.005520818901e+006 1.005520818901e+006 1.005520818900e+006 1.005520818900e+006 1.005520818899e+006 1.005520818902e+006 1.005195879318e+006 1.005195879319e+006 1.005195879319e+006 1.005195879318e+006 1.005195879317e+006 1.005195879317e+006 1.005195879318e+006 1.005195879317e+006 1.005195879316e+006 1.004885968060e+006 1.004885968057e+006 1.004885968059e+006 1.004885968058e+006 1.004885968058e+006 1.004885968058e+006 1.004885968058e+006 1.004885968058e+006 1.004885968058e+006 1.004556244857e+006 1.004556244857e+006 1.004556244855e+006 1.004556244857e+006 1.004556244857e+006 1.004556244856e+006 1.004556244856e+006 1.004556244856e+006 1.004556244856e+006 1.004287767566e+006 1.004287767567e+006 1.004287767567e+006 1.004287767567e+006 1.004287767568e+006 1.004287767568e+006 1.004287767567e+006 1.004287767567e+006 1.004287767568e+006 1.004041641432e+006 1.004041641432e+006 1.004041641433e+006 1.004041641433e+006 1.004041641434e+006 1.004041641434e+006 1.004041641433e+006 1.004041641432e+006 1.004041641432e+006 1.003839550206e+006 1.003839550207e+006 1.003839550207e+006 1.003839550207e+006 1.003839550208e+006 1.003839550207e+006 1.003839550207e+006 1.003839550206e+006 1.003839550206e+006 1.003637461137e+006 1.003637461138e+006 1.003637461138e+006 1.003637461138e+006 1.003637461138e+006 1.003637461138e+006 1.003637461138e+006 1.003637461137e+006 1.003637461137e+006 1.003435373312e+006 1.003435373312e+006 1.003435373312e+006 1.003435373312e+006 1.003435373312e+006 1.003435373312e+006 1.003435373312e+006 1.003435373311e+006 1.003435373311e+006 1.003233286658e+006 1.003233286658e+006 1.003233286659e+006 1.003233286659e+006 1.003233286658e+006 1.003233286659e+006 1.003233286658e+006 1.003233286658e+006 1.003233286658e+006 1.003031201129e+006 1.003031201129e+006 1.003031201128e+006 1.003031201128e+006 1.003031201128e+006 1.003031201128e+006 1.003031201128e+006 1.003031201128e+006 1.003031201128e+006 1.002829116654e+006 1.002829116654e+006 1.002829116654e+006 1.002829116654e+006 1.002829116654e+006 1.002829116654e+006 1.002829116654e+006 1.002829116654e+006 1.002829116654e+006 1.002627033155e+006 1.002627033156e+006 1.002627033155e+006 1.002627033155e+006 1.002627033155e+006 1.002627033155e+006 1.002627033155e+006 1.002627033155e+006 1.002627033155e+006 1.002424950552e+006 1.002424950552e+006 1.002424950553e+006 1.002424950552e+006 1.002424950553e+006 1.002424950552e+006 1.002424950552e+006 1.002424950552e+006 1.002424950552e+006 1.002222868765e+006 1.002222868765e+006 1.002222868765e+006 1.002222868765e+006 1.002222868765e+006 1.002222868765e+006 1.002222868765e+006 1.002222868765e+006 1.002222868765e+006 1.002020787714e+006 1.002020787714e+006 1.002020787715e+006 1.002020787714e+006 1.002020787714e+006 1.002020787714e+006 1.002020787714e+006 1.002020787714e+006 1.002020787714e+006 1.001818707320e+006 1.001818707320e+006 1.001818707320e+006 1.001818707320e+006 1.001818707320e+006 1.001818707320e+006 1.001818707320e+006 1.001818707320e+006 1.001818707320e+006 1.001616627502e+006 1.001616627503e+006 1.001616627502e+006 1.001616627502e+006 1.001616627502e+006 1.001616627503e+006 1.001616627503e+006 1.001616627503e+006 1.001616627503e+006 1.001414548180e+006 1.001414548180e+006 1.001414548180e+006 1.001414548180e+006 1.001414548180e+006 1.001414548181e+006 1.001414548181e+006 1.001414548181e+006 1.001414548180e+006 1.001212469274e+006 1.001212469274e+006 1.001212469274e+006 1.001212469273e+006 1.001212469273e+006 1.001212469274e+006 1.001212469274e+006 1.001212469274e+006 1.001212469274e+006 1.001010390700e+006 1.001010390701e+006 1.001010390701e+006 1.001010390700e+006 1.001010390701e+006 1.001010390701e+006 1.001010390701e+006 1.001010390701e+006 1.001010390701e+006 1.000808312380e+006 1.000808312380e+006 1.000808312380e+006 1.000808312380e+006 1.000808312381e+006 1.000808312380e+006 1.000808312381e+006 1.000808312381e+006 1.000808312381e+006 1.000606234232e+006 1.000606234232e+006 1.000606234232e+006 1.000606234232e+006 1.000606234232e+006 1.000606234232e+006 1.000606234232e+006 1.000606234232e+006 1.000606234232e+006 1.000404156173e+006 1.000404156173e+006 1.000404156173e+006 1.000404156173e+006 1.000404156173e+006 1.000404156173e+006 1.000404156173e+006 1.000404156173e+006 1.000404156173e+006 1.000202078123e+006 1.000202078123e+006 1.000202078123e+006 1.000202078123e+006 1.000202078123e+006 1.000202078123e+006 1.000202078123e+006 1.000202078123e+006 1.000202078123e+006 1.000000000000e+006 1.000000000000e+006 1.000000000000e+006 1.000000000000e+006 1.000000000000e+006 1.000000000000e+006 1.000000000000e+006 1.000000000000e+006 1.000000000000e+006 
        </DataArray>
        <DataArray type="Float64" Name="MOLAR_FRACTION" format="ascii">