<?xml version="1.0"?>
<VTKFile type="UnstructuredGrid" version="0.1" byte_order="LittleEndian">
  <UnstructuredGrid>
    <Piece NumberOfPoints="909" NumberOfCells="800">
      <Points>
        <DataArray type="Float64" NumberOfComponents="3" format="ascii">
          0.000000000000e+000 0.000000000000e+000 0.000000000000e+000
          2.000000000000e+000 0.000000000000e+000 0.000000000000e+000
          2.000000000000e+000 2.500000000000e+000 0.000000000000e+000
          0.000000000000e+000 2.500000000000e+000 0.000000000000e+000
          2.000000000000e+000 5.000000000000e+000 0.000000000000e+000
          0.000000000000e+000 5.000000000000e+000 0.000000000000e+000
          2.000000000000e+000 7.500000000000e+000 0.000000000000e+000
          0.000000000000e+000 7.500000000000e+000 0.000000000000e+000
          2.000000000000e+000 1.000000000000e+001 0.000000000000e+000
          0.000000000000e+000 1.000000000000e+001 0.000000000000e+000
          2.000000000000e+000 1.250000000000e+001 0.000000000000e+000
          0.000000000000e+000 1.250000000000e+001 0.000000000000e+000
          2.000000000000e+000 1.500000000000e+001 0.000000000000e+000
          0.000000000000e+000 1.500000000000e+001 0.000000000000e+000
          2.000000000000e+000 1.750000000000e+001 0.000000000000e+000
          0.000000000000e+000 1.750000000000e+001 0.000000000000e+000
          2.000000000000e+000 2.000000000000e+001 0.000000000000e+000
          0.000000000000e+000 2.000000000000e+001 0.000000000000e+000
          4.000000000000e+000 0.000000000000e+000 0.000000000000e+000
          4.000000000000e+000 2.500000000000e+000 0.000000000000e+000
          4.000000000000e+000 5.000000000000e+000 0.000000000000e+000
          4.000000000000e+000 7.500000000000e+000 0.000000000000e+000
          4.000000000000e+000 1.000000000000e+001 0.000000000000e+000
          4.000000000000e+000 1.250000000000e+001 0.000000000000e+000
          4.000000000000e+000 1.500000000000e+001 0.000000000000e+000
          4.000000000000e+000 1.750000000000e+001 0.000000000000e+000
          4.000000000000e+000 2.000000000000e+001 0.000000000000e+000
          6.000000000000e+000 0.000000000000e+000 0.000000000000e+000
          6.000000000000e+000 2.500000000000e+000 0.000000000000e+000
          6.000000000000e+000 5.000000000000e+000 0.000000000000e+000
          6.000000000000e+000 7.500000000000e+000 0.000000000000e+000
          6.000000000000e+000 1.000000000000e+001 0.000000000000e+000
          6.000000000000e+000 1.250000000000e+001 0.000000000000e+000
          6.000000000000e+000 1.500000000000e+001 0.000000000000e+000
          6.000000000000e+000 1.750000000000e+001 0.000000000000e+000
          6.000000000000e+000 2.000000000000e+001 0.000000000000e+000
          8.000000000000e+000 0.000000000000e+000 0.000000000000e+000
          8.000000000000e+000 2.500000000000e+000 0.000000000000e+000
          8.000000000000e+000 5.000000000000e+000 0.000000000000e+000
          8.000000000000e+000 7.500000000000e+000 0.000000000000e+000
          8.000000000000e+000 1.000000000000e+001 0.000000000000e+000
          8.000000000000e+000 1.250000000000e+001 0.000000000000e+000
          8.000000000000e+000 1.500000000000e+001 0.000000000000e+000
          8.000000000000e+000 1.750000000000e+001 0.000000000000e+000
          8.000000000000e+000 2.000000000000e+001 0.000000000000e+000
          1.000000000000e+001 0.000000000000e+000 0.000000000000e+000
          1.000000000000e+001 2.500000000000e+000 0.000000000000e+000
          1.000000000000e+001 5.000000000000e+000 0.000000000000e+000
          1.000000000000e+001 7.500000000000e+000 0.000000000000e+000
          1.000000000000e+001 1.000000000000e+001 0.000000000000e+000
          1.000000000000e+001 1.250000000000e+001 0.000000000000e+000
          1.000000000000e+001 1.500000000000e+001 0.000000000000e+000
          1.000000000000e+001 1.750000000000e+001 0.000000000000e+000
          1.000000000000e+001 2.000000000000e+001 0.000000000000e+000
          1.200000000000e+001 0.000000000000e+000 0.000000000000e+000
          1.200000000000e+001 2.500000000000e+000 0.000000000000e+000
          1.200000000000e+001 5.000000000000e+000 0.000000000000e+000
          1.200000000000e+001 7.500000000000e+000 0.000000000000e+000
          1.200000000000e+001 1.000000000000e+001 0.000000000000e+000
          1.200000000000e+001 1.250000000000e+001 0.000000000000e+000
          1.200000000000e+001 1.500000000000e+001 0.000000000000e+000
          1.200000000000e+001 1.750000000000e+001 0.000000000000e+000
          1.200000000000e+001 2.000000000000e+001 0.000000000000e+000
          1.400000000000e+001 0.000000000000e+000 0.000000000000e+000
          1.400000000000e+001 2.500000000000e+000 0.000000000000e+000
          1.400000000000e+001 5.000000000000e+000 0.000000000000e+000
          1.400000000000e+001 7.500000000000e+000 0.000000000000e+000
          1.400000000000e+001 1.000000000000e+001 0.000000000000e+000
          1.400000000000e+001 1.250000000000e+001 0.000000000000e+000
          1.400000000000e+001 1.500000000000e+001 0.000000000000e+000
          1.400000000000e+001 1.750000000000e+001 0.000000000000e+000
          1.400000000000e+001 2.000000000000e+001 0.000000000000e+000
          1.600000000000e+001 0.000000000000e+000 0.000000000000e+000
          1.600000000000e+001 2.500000000000e+000 0.000000000000e+000
          1.600000000000e+001 5.000000000000e+000 0.000000000000e+000
          1.600000000000e+001 7.500000000000e+000 0.000000000000e+000
          1.600000000000e+001 1.000000000000e+001 0.000000000000e+000
          1.600000000000e+001 1.250000000000e+001 0.000000000000e+000
          1.600000000000e+001 1.500000000000e+001 0.000000000000e+000
          1.600000000000e+001 1.750000000000e+001 0.000000000000e+000
          1.600000000000e+001 2.000000000000e+001 0.000000000000e+000
          1.800000000000e+001 0.000000000000e+000 0.000000000000e+000
          1.800000000000e+001 2.500000000000e+000 0.000000000000e+000
          1.800000000000e+001 5.000000000000e+000 0.000000000000e+000
          1.800000000000e+001 7.500000000000e+000 0.000000000000e+000
          1.800000000000e+001 1.000000000000e+001 0.000000000000e+000
          1.800000000000e+001 1.250000000000e+001 0.000000000000e+000
          1.800000000000e+001 1.500000000000e+001 0.000000000000e+000
          1.800000000000e+001 1.750000000000e+001 0.000000000000e+000
          1.800000000000e+001 2.000000000000e+001 0.000000000000e+000
          2.000000000000e+001 0.000000000000e+000 0.000000000000e+000
          2.000000000000e+001 2.500000000000e+000 0.000000000000e+000
          2.000000000000e+001 5.000000000000e+000 0.000000000000e+000
          2.000000000000e+001 7.500000000000e+000 0.000000000000e+000
          2.000000000000e+001 1.000000000000e+001 0.000000000000e+000
          2.000000000000e+001 1.250000000000e+001 0.000000000000e+000
          2.000000000000e+001 1.500000000000e+001 0.000000000000e+000
          2.000000000000e+001 1.750000000000e+001 0.000000000000e+000
          2.000000000000e+001 2.000000000000e+001 0.000000000000e+000
          2.200000000000e+001 0.000000000000e+000 0.000000000000e+000
          2.200000000000e+001 2.500000000000e+000 0.000000000000e+000
          2.200000000000e+001 5.000000000000e+000 0.000000000000e+000
          2.200000000000e+001 7.500000000000e+000 0.000000000000e+000
          2.200000000000e+001 1.000000000000e+001 0.000000000000e+000
          2.200000000000e+001 1.250000000000e+001 0.000000000000e+000
          2.200000000000e+001 1.500000000000e+001 0.000000000000e+000
          2.200000000000e+001 1.750000000000e+001 0.000000000000e+000
          2.200000000000e+001 2.000000000000e+001 0.000000000000e+000
          2.400000000000e+001 0.000000000000e+000 0.000000000000e+000
          2.400000000000e+001 2.500000000000e+000 0.000000000000e+000
          2.400000000000e+001 5.000000000000e+000 0.000000000000e+000
          2.400000000000e+001 7.500000000000e+000 0.000000000000e+000
          2.400000000000e+001 1.000000000000e+001 0.000000000000e+000
          2.400000000000e+001 1.250000000000e+001 0.000000000000e+000
          2.400000000000e+001 1.500000000000e+001 0.000000000000e+000
          2.400000000000e+001 1.750000000000e+001 0.000000000000e+000
          2.400000000000e+001 2.000000000000e+001 0.000000000000e+000
          2.600000000000e+001 0.000000000000e+000 0.000000000000e+000
          2.600000000000e+001 2.500000000000e+000 0.000000000000e+000
          2.600000000000e+001 5.000000000000e+000 0.000000000000e+000
          2.600000000000e+001 7.500000000000e+000 0.000000000000e+000
          2.600000000000e+001 1.000000000000e+001 0.000000000000e+000
          2.600000000000e+001 1.250000000000e+001 0.000000000000e+000
          2.600000000000e+001 1.500000000000e+001 0.000000000000e+000
          2.600000000000e+001 1.750000000000e+001 0.000000000000e+000
          2.600000000000e+001 2.000000000000e+001 0.000000000000e+000
          2.800000000000e+001 0.000000000000e+000 0.000000000000e+000
          2.800000000000e+001 2.500000000000e+000 0.000000000000e+000
          2.800000000000e+001 5.000000000000e+000 0.000000000000e+000
          2.800000000000e+001 7.500000000000e+000 0.000000000000e+000
          2.800000000000e+001 1.000000000000e+001 0.000000000000e+000
          2.800000000000e+001 1.250000000000e+001 0.000000000000e+000
          2.800000000000e+001 1.500000000000e+001 0.000000000000e+000
          2.800000000000e+001 1.750000000000e+001 0.000000000000e+000
          2.800000000000e+001 2.000000000000e+001 0.000000000000e+000
          3.000000000000e+001 0.000000000000e+000 0.000000000000e+000
          3.000000000000e+001 2.500000000000e+000 0.000000000000e+000
          3.000000000000e+001 5.000000000000e+000 0.000000000000e+000
          3.000000000000e+001 7.500000000000e+000 0.000000000000e+000
[...]
      <PointData Scalars="LIQUID_PRESSURE">
        <DataArray type="Float64" Name="LIQUID_PRESSURE" format="ascii">
          1.008251297282e+006 1.008262345770e+006 1.008262345780e+006 1.008251297227e+006 1.008262345798e+006 1.008251297176e+006 1.008262345765e+006 1.008251297242e+006 1.008262345784e+006 1.008251297228e+006 1.008262345818e+006 1.008251297147e+006 1.008262345818e+006 1.008251297157e+006 1.008262345828e+006 1.008251297130e+006 1.008262345848e+006 1.008251297072e+006 1.008260452762e+006 1.008260452788e+006 1.008260452795e+006 1.008260452772e+006 1.008260452775e+006 1.008260452798e+006 1.008260452781e+006 1.008260452790e+006 1.008260452808e+006 1.008229171367e+006 1.008229171378e+006 1.008229171381e+006 1.008229171368e+006 1.008229171371e+006 1.008229171381e+006 1.008229171373e+006 1.008229171366e+006 1.008229171370e+006 1.008243819898e+006 1.008243819906e+006 1.008243819904e+006 1.008243819894e+006 1.008243819893e+006 1.008243819900e+006 1.008243819891e+006 1.008243819887e+006 1.008243819894e+006 1.008216624211e+006 1.008216624216e+006 1.008216624212e+006 1.008216624209e+006 1.008216624204e+006 1.008216624211e+006 1.008216624200e+006 1.008216624204e+006 1.008216624212e+006 1.008188053479e+006 1.008188053478e+006 1.008188053481e+006 1.008188053480e+006 1.008188053478e+006 1.008188053476e+006 1.008188053472e+006 1.008188053477e+006 1.008188053478e+006 1.008191785477e+006 1.008191785471e+006 1.008191785474e+006 1.008191785476e+006 1.008191785470e+006 1.008191785467e+006 1.008191785468e+006 1.008191785467e+006 1.008191785474e+006 1.008141394097e+006 1.008141394085e+006 1.008141394093e+006 1.008141394093e+006 1.008141394084e+006 1.008141394081e+006 1.008141394087e+006 1.008141394089e+006 1.008141394082e+006 1.008128700562e+006 1.008128700557e+006 1.008128700562e+006 1.008128700560e+006 1.008128700556e+006 1.008128700551e+006 1.008128700561e+006 1.008128700556e+006 1.008128700555e+006 1.008097460375e+006 1.008097460388e+006 1.008097460386e+006 1.008097460384e+006 1.008097460383e+006 1.008097460380e+006 1.008097460387e+006 1.008097460386e+006 1.008097460380e+006 1.008053391218e+006 1.008053391221e+006 1.008053391220e+006 1.008053391218e+006 1.008053391214e+006 1.008053391206e+006 1.008053391225e+006 1.008053391226e+006 1.008053391218e+006 1.008032347434e+006 1.008032347428e+006 1.008032347437e+006 1.008032347427e+006 1.008032347427e+006 1.008032347430e+006 1.008032347427e+006 1.008032347430e+006 1.008032347440e+006 1.007975148531e+006 1.007975148525e+006 1.007975148519e+006 1.007975148521e+006 1.007975148521e+006 1.007975148520e+006 1.007975148524e+006 1.007975148519e+006 1.007975148524e+006 1.007947389419e+006 1.007947389415e+006 1.007947389407e+006 1.007947389414e+006 1.007947389412e+006 1.007947389418e+006 1.007947389416e+006 1.007947389416e+006 1.007947389415e+006 1.007892771971e+006 1.007892771975e+006 1.007892771975e+006 1.007892771972e+006 1.007892771974e+006 1.007892771968e+006 1.007892771973e+006 1.007892771972e+006 1.007892771974e+006 1.007844523119e+006 1.007844523120e+006 1.007844523116e+006 1.007844523116e+006 1.007844523118e+006 1.007844523113e+006 1.007844523118e+006 1.007844523117e+006 1.007844523119e+006 1.007802810568e+006 1.007802810579e+006 1.007802810571e+006 1.007802810575e+006 1.007802810576e+006 1.007802810577e+006 1.007802810580e+006 1.007802810571e+006 1.007802810575e+006 1.007730523408e+006 1.007730523405e+006 1.007730523404e+006 1.007730523395e+006 1.007730523400e+006 1.007730523406e+006 1.007730523399e+006 1.007730523404e+006 1.007730523404e+006 1.007693018524e+006 1.007693018515e+006 1.007693018514e+006 1.007693018520e+006 1.007693018515e+006 1.007693018510e+006 1.007693018514e+006 1.007693018513e+006 1.007693018519e+006 1.007619133726e+006 1.007619133719e+006 1.007619133719e+006 1.007619133731e+006 1.007619133720e+006 1.007619133721e+006 1.007619133722e+006 1.007619133717e+006 1.007619133725e+006 1.007563053548e+006 1.007563053552e+006 1.007563053551e+006 1.007563053549e+006 1.007563053548e+006 1.007563053548e+006 1.007563053545e+006 1.007563053545e+006 1.007563053542e+006 1.007497250152e+006 1.007497250153e+006 1.007497250157e+006 1.007497250154e+006 1.007497250156e+006 1.007497250159e+006 1.007497250152e+006 1.007497250153e+006 1.007497250152e+006 1.007425643304e+006 1.007425643296e+006 1.007425643298e+006 1.007425643299e+006 1.007425643303e+006 1.007425643301e+006 1.007425643302e+006 1.007425643301e+006 1.007425643297e+006 1.007364002617e+006 1.007364002617e+006 1.007364002614e+006 1.007364002616e+006 1.007364002618e+006 1.007364002616e+006 1.007364002621e+006 1.007364002618e+006 1.007364002613e+006 1.007279296439e+006 1.007279296452e+006 1.007279296447e+006 1.007279296447e+006 1.007279296447e+006 1.007279296445e+006 1.007279296444e+006 1.007279296445e+006 1.007279296441e+006 1.007214207628e+006 1.007214207621e+006 1.007214207627e+006 1.007214207624e+006 1.007214207623e+006 1.007214207620e+006 1.007214207622e+006 1.007214207627e+006 1.007214207619e+006 1.007133044889e+006 1.007133044885e+006 1.007133044884e+006 1.007133044889e+006 1.007133044885e+006 1.007133044878e+006 1.007133044884e+006 1.007133044881e+006 1.007133044888e+006 1.007047152226e+006 1.007047152222e+006 1.007047152218e+006 1.007047152217e+006 1.007047152221e+006 1.007047152219e+006 1.007047152220e+006 1.007047152222e+006 1.007047152226e+006 1.006977874872e+006 1.006977874873e+006 1.006977874870e+006 1.006977874872e+006 1.006977874870e+006 1.006977874871e+006 1.006977874871e+006 1.006977874868e+006 1.006977874871e+006 1.006879523682e+006 1.006879523678e+006 1.006879523680e+006 1.006879523685e+006 1.006879523683e+006 1.006879523679e+006 1.006879523680e+006 1.006879523680e+006 1.006879523677e+006 1.006799556342e+006 1.006799556347e+006 1.006799556350e+006 1.006799556356e+006 1.006799556355e+006 1.006799556350e+006 1.006799556355e+006 1.006799556354e+006 1.006799556354e+006 1.006714442653e+006 1.006714442650e+006 1.006714442651e+006 1.006714442655e+006 1.006714442658e+006 1.006714442655e+006 1.006714442655e+006 1.006714442651e+006 1.006714442656e+006 1.006611232744e+006 1.006611232740e+006 1.006611232744e+006 1.006611232744e+006 1.006611232746e+006 1.006611232742e+006 1.006611232743e+006 1.006611232743e+006 1.006611232738e+006 1.006531509078e+006 1.006531509081e+006 1.006531509081e+006 1.006531509083e+006 1.006531509086e+006 1.006531509080e+006 1.006531509087e+006 1.006531509079e+006 1.006531509080e+006 1.006429612105e+006 1.006429612106e+006 1.006429612105e+006 1.006429612104e+006 1.006429612108e+006 1.006429612107e+006 1.006429612105e+006 1.006429612107e+006 1.006429612102e+006 1.006330710617e+006 1.006330710620e+006 1.006330710619e+006 1.006330710618e+006 1.006330710622e+006 1.006330710618e+006 1.006330710620e+006 1.006330710617e+006 1.006330710618e+006 1.006239673943e+006 1.006239673947e+006 1.006239673949e+006 1.006239673950e+006 1.006239673949e+006 1.006239673949e+006 1.006239673949e+006 1.006239673948e+006 1.006239673942e+006 1.006132613309e+006 1.006132613305e+006 1.006132613301e+006 1.006132613305e+006 1.006132613304e+006 1.006132613304e+006 1.006132613301e+006 1.006132613300e+006 1.006132613300e+006 1.006029384993e+006 1.006029384990e+006 1.006029384990e+006 1.006029384986e+006 1.006029384989e+006 1.006029384987e+006 1.006029384987e+006 1.006029384985e+006 1.006029384991e+006 1.005935026644e+006 1.005935026645e+006 1.005935026641e+006 1.005935026644e+006 1.005935026640e+006 1.005935026641e+006 1.005935026641e+006 1.005935026639e+006 1.005935026639e+006 1.005819502938e+006 1.005819502940e+006 1.005819502938e+006 1.005819502939e+006 1.005819502938e+006 1.005819502936e+006 1.005819502936e+006 1.005819502935e+006 1.005819502935e+006 1.005716657244e+006 1.005716657244e+006 1.005716657244e+006 1.005716657245e+006 1.005716657247e+006 1.005716657239e+006 1.005716657247e+006 1.005716657240e+006 1.005716657242e+006 1.005609257139e+006 1.005609257143e+006 1.005609257141e+006 1.005609257138e+006 1.005609257142e+006 1.005609257139e+006 1.005609257137e+006 1.005609257144e+006 1.005609257142e+006 1.005495418063e+006 1.005495418069e+006 1.005495418067e+006 1.005495418065e+006 1.005495418065e+006 1.005495418064e+006 1.005495418063e+006 1.005495418063e+006 1.005495418063e+006 1.005392874711e+006 1.005392874713e+006 1.005392874711e+006 1.005392874714e+006 1.005392874709e+006 1.005392874709e+006 1.005392874707e+006 1.005392874707e+006 1.005392874709e+006 1.005275677188e+006 1.005275677188e+006 1.005275677191e+006 1.005275677190e+006 1.005275677185e+006 1.005275677188e+006 1.005275677189e+006 1.005275677186e+006 1.005275677189e+006 1.005154074051e+006 1.005154074052e+006 1.005154074051e+006 1.005154074050e+006 1.005154074052e+006 1.005154074050e+006 1.005154074052e+006 1.005154074049e+006 1.005154074048e+006 1.005055476289e+006 1.005055476292e+006 1.005055476292e+006 1.005055476289e+006 1.005055476291e+006 1.005055476289e+006 1.005055476292e+006 1.005055476291e+006 1.005055476288e+006 1.004930047225e+006 1.004930047228e+006 1.004930047228e+006 1.004930047229e+006 1.004930047228e+006 1.004930047226e+006 1.004930047226e+006 1.004930047227e+006 1.004930047230e+006 1.004815987434e+006 1.004815987432e+006 1.004815987433e+006 1.004815987432e+006 1.004815987430e+006 1.004815987432e+006 1.004815987433e+006 1.004815987432e+006 1.004815987430e+006 1.004701334964e+006 1.004701334960e+006 1.004701334959e+006 1.004701334958e+006 1.004701334954e+006 1.004701334959e+006 1.004701334959e+006 1.004701334959e+006 1.004701334956e+006 1.004578030947e+006 1.004578030950e+006 1.004578030950e+006 1.004578030945e+006 1.004578030941e+006 1.004578030947e+006 1.004578030944e+006 1.004578030944e+006 1.004578030944e+006 1.004461942395e+006 1.004461942400e+006 1.004461942402e+006 1.004461942400e+006 1.004461942399e+006 1.004461942397e+006 1.004461942399e+006 1.004461942398e+006 1.004461942397e+006 1.004346779292e+006 1.004346779291e+006 1.004346779291e+006 1.004346779293e+006 1.004346779292e+006 1.004346779290e+006 1.004346779291e+006 1.004346779292e+006 1.004346779289e+006 1.004222434978e+006 1.004222434980e+006 1.004222434983e+006 1.004222434980e+006 1.004222434981e+006 1.004222434977e+006 1.004222434982e+006 1.004222434981e+006 1.004222434981e+006 1.004099911399e+006 1.004099911400e+006 1.004099911399e+006 1.004099911398e+006 1.004099911398e+006 1.004099911399e+006 1.004099911398e+006 1.004099911400e+006 1.004099911400e+006 1.003982968813e+006 1.003982968815e+006 1.003982968815e+006 1.003982968814e+006 1.003982968814e+006 1.003982968814e+006 1.003982968814e+006 1.003982968814e+006 1.003982968813e+006 1.003875110280e+006 1.003875110282e+006 1.003875110281e+006 1.003875110282e+006 1.003875110284e+006 1.003875110282e+006 1.003875110285e+006 1.003875110282e+006 1.003875110282e+006 1.003721494223e+006 1.003721494223e+006 1.003721494223e+006 1.003721494221e+006 1.003721494220e+006 1.003721494220e+006 1.003721494220e+006 1.003721494220e+006 1.003721494221e+006 1.003620870300e+006 1.003620870301e+006 1.003620870301e+006 1.003620870304e+006 1.003620870309e+006 1.003620870310e+006 1.003620870308e+006 1.003620870310e+006 1.003620870308e+006 1.003512274143e+006 1.003512274145e+006 1.003512274145e+006 1.003512274139e+006 1.003512274137e+006 1.003512274135e+006 1.003512274133e+006 1.003512274135e+006 1.003512274132e+006 1.003381775996e+006 1.003381775999e+006 1.003381776001e+006 1.003381776010e+006 1.003381776017e+006 1.003381776022e+006 1.003381776021e+006 1.003381776025e+006 1.003381776023e+006 1.003212466457e+006 1.003212466454e+006 1.003212466453e+006 1.003212466437e+006 1.003212466434e+006 1.003212466431e+006 1.003212466433e+006 1.003212466430e+006 1.003212466429e+006 1.003203993759e+006 1.003203993761e+006 1.003203993753e+006 1.003203993778e+006 1.003203993785e+006 1.003203993789e+006 1.003203993791e+006 1.003203993793e+006 1.003203993799e+006 1.002939158269e+006 1.002939158266e+006 1.002939158271e+006 1.002939158252e+006 1.002939158252e+006 1.002939158251e+006 1.002939158246e+006 1.002939158248e+006 1.002939158245e+006 1.002958629177e+006 1.002958629180e+006 1.002958629179e+006 1.002958629182e+006 1.002958629189e+006 1.002958629191e+006 1.002958629193e+006 1.002958629193e+006 1.002958629196e+006 1.002744760280e+006 1.002744760281e+006 1.002744760277e+006 1.002744760288e+006 1.002744760284e+006 1.002744760285e+006 1.002744760285e+006 1.002744760289e+006 1.002744760286e+006 1.002652249372e+006 1.002652249373e+006 1.002652249369e+006 1.002652249374e+006 1.002652249370e+006 1.002652249371e+006 1.002652249371e+006 1.002652249371e+006 1.002652249374e+006 1.002550559043e+006 1.002550559045e+006 1.002550559044e+006 1.002550559046e+006 1.002550559045e+006 1.002550559045e+006 1.002550559045e+006 1.002550559046e+006 1.002550559046e+006 1.002417805170e+006 1.002417805168e+006 1.002417805169e+006 1.002417805169e+006 1.002417805169e+006 1.002417805170e+006 1.002417805171e+006 1.002417805169e+006 1.002417805172e+006 1.002309539139e+006 1.002309539139e+006 1.002309539138e+006 1.002309539140e+006 1.002309539140e+006 1.002309539141e+006 1.002309539141e+006 1.002309539141e+006 1.002309539140e+006 1.002187337560e+006 1.002187337559e+006 1.002187337559e+006 1.002187337562e+006 1.002187337561e+006 1.002187337560e+006 1.002187337561e+006 1.002187337559e+006 1.002187337559e+006 1.002070273689e+006 1.002070273689e+006 1.002070273689e+006 1.002070273689e+006 1.002070273689e+006 1.002070273689e+006 1.002070273688e+006 1.002070273688e+006 1.002070273687e+006 1.001981502818e+006 1.001981502819e+006 1.001981502819e+006 1.001981502819e+006 1.001981502818e+006 1.001981502819e+006 1.001981502818e+006 1.001981502819e+006 1.001981502817e+006 1.001849215724e+006 1.001849215724e+006 1.001849215724e+006 1.001849215725e+006 1.001849215724e+006 1.001849215724e+006 1.001849215724e+006 1.001849215723e+006 1.001849215727e+006 1.001749227506e+006 1.001749227507e+006 1.001749227507e+006 1.001749227504e+006 1.001749227504e+006 1.001749227505e+006 1.001749227505e+006 1.001749227505e+006 1.001749227504e+006 1.001653212187e+006 1.001653212184e+006 1.001653212187e+006 1.001653212186e+006 1.001653212187e+006 1.001653212186e+006 1.001653212185e+006 1.001653212187e+006 1.001653212188e+006 1.001534815573e+006 1.001534815574e+006 1.001534815572e+006 1.001534815573e+006 1.001534815572e+006 1.001534815572e+006 1.001534815572e+006 1.001534815573e+006 1.001534815573e+006 1.001454531439e+006 1.001454531439e+006 1.001454531440e+006 1.001454531440e+006 1.001454531440e+006 1.001454531440e+006 1.001454531439e+006 1.001454531440e+006 1.001454531441e+006 1.001363360230e+006 1.001363360230e+006 1.001363360231e+006 1.001363360230e+006 1.001363360230e+006 1.001363360231e+006 1.001363360230e+006 1.001363360230e+006 1.001363360229e+006 1.001292162847e+006 1.001292162847e+006 1.001292162847e+006 1.001292162847e+006 1.001292162847e+006 1.001292162847e+006 1.001292162847e+006 1.001292162846e+006 1.001292162846e+006 1.001224152432e+006 1.001224152432e+006 1.001224152432e+006 1.001224152432e+006 1.001224152433e+006 1.001224152432e+006 1.001224152432e+006 1.001224152432e+006 1.001224152431e+006 1.001156142108e+006 1.001156142108e+006 1.001156142108e+006 1.001156142108e+006 1.001156142108e+006 1.001156142108e+006 1.001156142107e+006 1.001156142107e+006 1.001156142107e+006 1.001088132154e+006 1.001088132155e+006 1.001088132155e+006 1.001088132155e+006 1.001088132154e+006 1.001088132155e+006 1.001088132154e+006 1.001088132154e+006 1.001088132154e+006 1.001020122505e+006 1.001020122505e+006 1.001020122505e+006 1.001020122505e+006 1.001020122505e+006 1.001020122505e+006 1.001020122504e+006 1.001020122504e+006 1.001020122504e+006 1.000952113147e+006 1.000952113147e+006 1.000952113147e+006 1.000952113146e+006 1.000952113147e+006 1.000952113146e+006 1.000952113147e+006 1.000952113147e+006 1.000952113147e+006 1.000884104058e+006 1.000884104059e+006 1.000884104058e+006 1.000884104058e+006 1.000884104058e+006 1.000884104058e+006 1.000884104058e+006 1.000884104058e+006 1.000884104058e+006 1.000816095217e+006 1.000816095216e+006 1.000816095217e+006 1.000816095217e+006 1.000816095217e+006 1.000816095217e+006 1.000816095217e+006 1.000816095216e+006 1.000816095217e+006 1.000748086598e+006 1.000748086598e+006 1.000748086598e+006 1.000748086598e+006 1.000748086598e+006 1.000748086598e+006 1.000748086598e+006 1.000748086598e+006 1.000748086598e+006 1.000680078181e+006 1.000680078181e+006 1.000680078181e+006 1.000680078181e+006 1.000680078181e+006 1.000680078181e+006 1.000680078181e+006 1.000680078181e+006 1.000680078181e+006 1.000612069941e+006 1.000612069941e+006 1.000612069941e+006 1.000612069941e+006 1.000612069941e+006 1.000612069941e+006 1.000612069941e+006 1.000612069941e+006 1.000612069941e+006 1.000544061857e+006 1.000544061857e+006 1.000544061857e+006 1.000544061857e+006 1.000544061857e+006 1.000544061857e+006 1.000544061857e+006 1.000544061857e+006 1.000544061857e+006 1.000476053904e+006 1.000476053904e+006 1.000476053904e+006 1.000476053904e+006 1.000476053904e+006 1.000476053904e+006 1.000476053905e+006 1.000476053904e+006 1.000476053904e+006 1.000408046061e+006 1.000408046061e+006 1.000408046061e+006 1.000408046061e+006 1.000408046061e+006 1.000408046061e+006 1.000408046061e+006 1.000408046061e+006 1.000408046061e+006 1.000340038304e+006 1.000340038304e+006 1.000340038304e+006 1.000340038304e+006 1.000340038304e+006 1.000340038304e+006 1.000340038304e+006 1.000340038304e+006 1.000340038304e+006 1.000272030610e+006 1.000272030610e+006 1.000272030610e+006 1.000272030610e+006 1.000272030610e+006 1.000272030610e+006 1.000272030610e+006 1.000272030610e+006 1.000272030610e+006 1.000204022956e+006 1.000204022956e+006 1.000204022956e+006 1.000204022956e+006 1.000204022956e+006 1.000204022956e+006 1.000204022956e+006 1.000204022956e+006 1.000204022956e+006 1.000136015318e+006 1.000136015318e+006 1.000136015318e+006 1.000136015318e+006 1.000136015318e+006 1.000136015318e+006 1.000136015318e+006 1.000136015318e+006 1.000136015318e+006 1.000068007674e+006 1.000068007674e+006 1.000068007674e+006 1.000068007674e+006 1.000068007674e+006 1.000068007674e+006 1.000068007674e+006 1.000068007674e+006 1.000068007674e+006 1.000000000000e+006 1.000000000000e+006 1.000000000000e+006 1.000000000000e+006 1.000000000000e+006 1.000000000000e+006 1.000000000000e+006 1.000000000000e+006 1.000000000000e+006 
        </DataArray>
        <DataArray type="Float64" Name="MOLAR_FRACTION" format="ascii">