<?xml version="1.0"?>
<VTKFile type="UnstructuredGrid" version="0.1" byte_order="LittleEndian">
  <UnstructuredGrid>
    <Piece NumberOfPoints="909" NumberOfCells="800">
      <Points>
        <DataArray type="Float64" NumberOfComponents="3" format="ascii">
          0.000000000000e+000 0.000000000000e+000 0.000000000000e+000
          2.000000000000e+000 0.000000000000e+000 0.000000000000e+000
          2.000000000000e+000 2.500000000000e+000 0.000000000000e+000
          0.000000000000e+000 2.500000000000e+000 0.000000000000e+000
          2.000000000000e+000 5.000000000000e+000 0.000000000000e+000
          0.000000000000e+000 5.000000000000e+000 0.000000000000e+000
          2.000000000000e+000 7.500000000000e+000 0.000000000000e+000
          0.000000000000e+000 7.500000000000e+000 0.000000000000e+000
          2.000000000000e+000 1.000000000000e+001 0.000000000000e+000
          0.000000000000e+000 1.000000000000e+001 0.000000000000e+000
          2.000000000000e+000 1.250000000000e+001 0.000000000000e+000
          0.000000000000e+000 1.250000000000e+001 0.000000000000e+000
          2.000000000000e+000 1.500000000000e+001 0.000000000000e+000
          0.000000000000e+000 1.500000000000e+001 0.000000000000e+000
          2.000000000000e+000 1.750000000000e+001 0.000000000000e+000
          0.000000000000e+000 1.750000000000e+001 0.000000000000e+000
          2.000000000000e+000 2.000000000000e+001 0.000000000000e+000
          0.000000000000e+000 2.000000000000e+001 0.000000000000e+000
          4.000000000000e+000 0.000000000000e+000 0.000000000000e+000
          4.000000000000e+000 2.500000000000e+000 0.000000000000e+000
          4.000000000000e+000 5.000000000000e+000 0.000000000000e+000
          4.000000000000e+000 7.500000000000e+000 0.000000000000e+000
          4.000000000000e+000 1.000000000000e+001 0.000000000000e+000
          4.000000000000e+000 1.250000000000e+001 0.000000000000e+000
          4.000000000000e+000 1.500000000000e+001 0.000000000000e+000
          4.000000000000e+000 1.750000000000e+001 0.000000000000e+000
          4.000000000000e+000 2.000000000000e+001 0.000000000000e+000
          6.000000000000e+000 0.000000000000e+000 0.000000000000e+000
          6.000000000000e+000 2.500000000000e+000 0.000000000000e+000
          6.000000000000e+000 5.000000000000e+000 0.000000000000e+000
          6.000000000000e+000 7.500000000000e+000 0.000000000000e+000
          6.000000000000e+000 1.000000000000e+001 0.000000000000e+000
          6.000000000000e+000 1.250000000000e+001 0.000000000000e+000
          6.000000000000e+000 1.500000000000e+001 0.000000000000e+000
          6.000000000000e+000 1.750000000000e+001 0.000000000000e+000
          6.000000000000e+000 2.000000000000e+001 0.000000000000e+000
          8.000000000000e+000 0.000000000000e+000 0.000000000000e+000
          8.000000000000e+000 2.500000000000e+000 0.000000000000e+000
          8.000000000000e+000 5.000000000000e+000 0.000000000000e+000
          8.000000000000e+000 7.500000000000e+000 0.000000000000e+000
          8.000000000000e+000 1.000000000000e+001 0.000000000000e+000
          8.000000000000e+000 1.250000000000e+001 0.000000000000e+000
          8.000000000000e+000 1.500000000000e+001 0.000000000000e+000
          8.000000000000e+000 1.750000000000e+001 0.000000000000e+000
          8.000000000000e+000 2.000000000000e+001 0.000000000000e+000
          1.000000000000e+001 0.000000000000e+000 0.000000000000e+000
          1.000000000000e+001 2.500000000000e+000 0.000000000000e+000
          1.000000000000e+001 5.000000000000e+000 0.000000000000e+000
          1.000000000000e+001 7.500000000000e+000 0.000000000000e+000
          1.000000000000e+001 1.000000000000e+001 0.000000000000e+000
          1.000000000000e+001 1.250000000000e+001 0.000000000000e+000
          1.000000000000e+001 1.500000000000e+001 0.000000000000e+000
          1.000000000000e+001 1.750000000000e+001 0.000000000000e+000
          1.000000000000e+001 2.000000000000e+001 0.000000000000e+000
          1.200000000000e+001 0.000000000000e+000 0.000000000000e+000
          1.200000000000e+001 2.500000000000e+000 0.000000000000e+000
          1.200000000000e+001 5.000000000000e+000 0.000000000000e+000
          1.200000000000e+001 7.500000000000e+000 0.000000000000e+000
          1.200000000000e+001 1.000000000000e+001 0.000000000000e+000
          1.200000000000e+001 1.250000000000e+001 0.000000000000e+000
          1.200000000000e+001 1.500000000000e+001 0.000000000000e+000
          1.200000000000e+001 1.750000000000e+001 0.000000000000e+000
          1.200000000000e+001 2.000000000000e+001 0.000000000000e+000
          1.400000000000e+001 0.000000000000e+000 0.000000000000e+000
          1.400000000000e+001 2.500000000000e+000 0.000000000000e+000
          1.400000000000e+001 5.000000000000e+000 0.000000000000e+000
          1.400000000000e+001 7.500000000000e+000 0.000000000000e+000
          1.400000000000e+001 1.000000000000e+001 0.000000000000e+000
          1.400000000000e+001 1.250000000000e+001 0.000000000000e+000
          1.400000000000e+001 1.500000000000e+001 0.000000000000e+000
          1.400000000000e+001 1.750000000000e+001 0.000000000000e+000
          1.400000000000e+001 2.000000000000e+001 0.000000000000e+000
          1.600000000000e+001 0.000000000000e+000 0.000000000000e+000
          1.600000000000e+001 2.500000000000e+000 0.000000000000e+000
          1.600000000000e+001 5.000000000000e+000 0.000000000000e+000
          1.600000000000e+001 7.500000000000e+000 0.000000000000e+000
          1.600000000000e+001 1.000000000000e+001 0.000000000000e+000
          1.600000000000e+001 1.250000000000e+001 0.000000000000e+000
          1.600000000000e+001 1.500000000000e+001 0.000000000000e+000
          1.600000000000e+001 1.750000000000e+001 0.000000000000e+000
          1.600000000000e+001 2.000000000000e+001 0.000000000000e+000
          1.800000000000e+001 0.000000000000e+000 0.000000000000e+000
          1.800000000000e+001 2.500000000000e+000 0.000000000000e+000
          1.800000000000e+001 5.000000000000e+000 0.000000000000e+000
          1.800000000000e+001 7.500000000000e+000 0.000000000000e+000
          1.800000000000e+001 1.000000000000e+001 0.000000000000e+000
          1.800000000000e+001 1.250000000000e+001 0.000000000000e+000
          1.800000000000e+001 1.500000000000e+001 0.000000000000e+000
          1.800000000000e+001 1.750000000000e+001 0.000000000000e+000
          1.800000000000e+001 2.000000000000e+001 0.000000000000e+000
          2.000000000000e+001 0.000000000000e+000 0.000000000000e+000
          2.000000000000e+001 2.500000000000e+000 0.000000000000e+000
          2.000000000000e+001 5.000000000000e+000 0.000000000000e+000
          2.000000000000e+001 7.500000000000e+000 0.000000000000e+000
          2.000000000000e+001 1.000000000000e+001 0.000000000000e+000
          2.000000000000e+001 1.250000000000e+001 0.000000000000e+000
          2.000000000000e+001 1.500000000000e+001 0.000000000000e+000
          2.000000000000e+001 1.750000000000e+001 0.000000000000e+000
          2.000000000000e+001 2.000000000000e+001 0.000000000000e+000
          2.200000000000e+001 0.000000000000e+000 0.000000000000e+000
          2.200000000000e+001 2.500000000000e+000 0.000000000000e+000
          2.200000000000e+001 5.000000000000e+000 0.000000000000e+000
          2.200000000000e+001 7.500000000000e+000 0.000000000000e+000
          2.200000000000e+001 1.000000000000e+001 0.000000000000e+000
          2.200000000000e+001 1.250000000000e+001 0.000000000000e+000
          2.200000000000e+001 1.500000000000e+001 0.000000000000e+000
          2.200000000000e+001 1.750000000000e+001 0.000000000000e+000
          2.200000000000e+001 2.000000000000e+001 0.000000000000e+000
          2.400000000000e+001 0.000000000000e+000 0.000000000000e+000
          2.400000000000e+001 2.500000000000e+000 0.000000000000e+000
          2.400000000000e+001 5.000000000000e+000 0.000000000000e+000
          2.400000000000e+001 7.500000000000e+000 0.000000000000e+000
          2.400000000000e+001 1.000000000000e+001 0.000000000000e+000
          2.400000000000e+001 1.250000000000e+001 0.000000000000e+000
          2.400000000000e+001 1.500000000000e+001 0.000000000000e+000
          2.400000000000e+001 1.750000000000e+001 0.000000000000e+000
          2.400000000000e+001 2.000000000000e+001 0.000000000000e+000
          2.600000000000e+001 0.000000000000e+000 0.000000000000e+000
          2.600000000000e+001 2.500000000000e+000 0.000000000000e+000
          2.600000000000e+001 5.000000000000e+000 0.000000000000e+000
          2.600000000000e+001 7.500000000000e+000 0.000000000000e+000
          2.600000000000e+001 1.000000000000e+001 0.000000000000e+000
          2.600000000000e+001 1.250000000000e+001 0.000000000000e+000
          2.600000000000e+001 1.500000000000e+001 0.000000000000e+000
          2.600000000000e+001 1.750000000000e+001 0.000000000000e+000
          2.600000000000e+001 2.000000000000e+001 0.000000000000e+000
          2.800000000000e+001 0.000000000000e+000 0.000000000000e+000
          2.800000000000e+001 2.500000000000e+000 0.000000000000e+000
          2.800000000000e+001 5.000000000000e+000 0.000000000000e+000
          2.800000000000e+001 7.500000000000e+000 0.000000000000e+000
          2.800000000000e+001 1.000000000000e+001 0.000000000000e+000
          2.800000000000e+001 1.250000000000e+001 0.000000000000e+000
          2.800000000000e+001 1.500000000000e+001 0.000000000000e+000
          2.800000000000e+001 1.750000000000e+001 0.000000000000e+000
          2.800000000000e+001 2.000000000000e+001 0.000000000000e+000
          3.000000000000e+001 0.000000000000e+000 0.000000000000e+000
          3.000000000000e+001 2.500000000000e+000 0.000000000000e+000
          3.000000000000e+001 5.000000000000e+000 0.000000000000e+000
          3.000000000000e+001 7.500000000000e+000 0.000000000000e+000
[...]
      <PointData Scalars="LIQUID_PRESSURE">
        <DataArray type="Float64" Name="LIQUID_PRESSURE" format="ascii">
          1.050224614550e+006 1.050233456478e+006 1.050233456491e+006 1.050224614466e+006 1.050233456517e+006 1.050224614409e+006 1.050233456483e+006 1.050224614498e+006 1.050233456503e+006 1.050224614476e+006 1.050233456545e+006 1.050224614361e+006 1.050233456533e+006 1.050224614356e+006 1.050233456549e+006 1.050224614316e+006 1.050233456579e+006 1.050224614247e+006 1.050206185865e+006 1.050206185901e+006 1.050206185920e+006 1.050206185879e+006 1.050206185886e+006 1.050206185933e+006 1.050206185909e+006 1.050206185926e+006 1.050206185958e+006 1.050134165051e+006 1.050134165075e+006 1.050134165088e+006 1.050134165058e+006 1.050134165065e+006 1.050134165086e+006 1.050134165066e+006 1.050134165069e+006 1.050134165083e+006 1.050102515610e+006 1.050102515622e+006 1.050102515635e+006 1.050102515611e+006 1.050102515612e+006 1.050102515622e+006 1.050102515609e+006 1.050102515604e+006 1.050102515614e+006 1.050001848572e+006 1.050001848583e+006 1.050001848586e+006 1.050001848579e+006 1.050001848571e+006 1.050001848586e+006 1.050001848575e+006 1.050001848572e+006 1.050001848578e+006 1.049890218646e+006 1.049890218652e+006 1.049890218656e+006 1.049890218650e+006 1.049890218650e+006 1.049890218654e+006 1.049890218652e+006 1.049890218651e+006 1.049890218652e+006 1.049799844063e+006 1.049799844064e+006 1.049799844068e+006 1.049799844062e+006 1.049799844066e+006 1.049799844065e+006 1.049799844065e+006 1.049799844064e+006 1.049799844065e+006 1.049631704570e+006 1.049631704568e+006 1.049631704570e+006 1.049631704568e+006 1.049631704569e+006 1.049631704571e+006 1.049631704571e+006 1.049631704573e+006 1.049631704569e+006 1.049495607599e+006 1.049495607598e+006 1.049495607599e+006 1.049495607599e+006 1.049495607599e+006 1.049495607598e+006 1.049495607598e+006 1.049495607598e+006 1.049495607599e+006 1.049321157482e+006 1.049321157485e+006 1.049321157484e+006 1.049321157483e+006 1.049321157484e+006 1.049321157484e+006 1.049321157483e+006 1.049321157483e+006 1.049321157484e+006 1.049118949450e+006 1.049118949452e+006 1.049118949450e+006 1.049118949452e+006 1.049118949449e+006 1.049118949450e+006 1.049118949454e+006 1.049118949451e+006 1.049118949453e+006 1.048927599227e+006 1.048927599226e+006 1.048927599227e+006 1.048927599226e+006 1.048927599226e+006 1.048927599228e+006 1.048927599225e+006 1.048927599226e+006 1.048927599226e+006 1.048682166526e+006 1.048682166525e+006 1.048682166527e+006 1.048682166527e+006 1.048682166527e+006 1.048682166527e+006 1.048682166526e+006 1.048682166525e+006 1.048682166526e+006 1.048457527091e+006 1.048457527094e+006 1.048457527091e+006 1.048457527093e+006 1.048457527092e+006 1.048457527092e+006 1.048457527093e+006 1.048457527094e+006 1.048457527092e+006 1.048186898242e+006 1.048186898240e+006 1.048186898243e+006 1.048186898240e+006 1.048186898242e+006 1.048186898240e+006 1.048186898241e+006 1.048186898240e+006 1.048186898241e+006 1.047912321613e+006 1.047912321610e+006 1.047912321611e+006 1.047912321611e+006 1.047912321609e+006 1.047912321612e+006 1.047912321610e+006 1.047912321611e+006 1.047912321610e+006 1.047627721030e+006 1.047627721031e+006 1.047627721030e+006 1.047627721031e+006 1.047627721030e+006 1.047627721030e+006 1.047627721030e+006 1.047627721031e+006 1.047627721030e+006 1.047296938541e+006 1.047296938541e+006 1.047296938541e+006 1.047296938541e+006 1.047296938542e+006 1.047296938542e+006 1.047296938541e+006 1.047296938541e+006 1.047296938542e+006 1.046993431238e+006 1.046993431238e+006 1.046993431237e+006 1.046993431237e+006 1.046993431237e+006 1.046993431237e+006 1.046993431237e+006 1.046993431237e+006 1.046993431238e+006 1.046633485110e+006 1.046633485109e+006 1.046633485110e+006 1.046633485109e+006 1.046633485109e+006 1.046633485110e+006 1.046633485109e+006 1.046633485110e+006 1.046633485109e+006 1.046282097633e+006 1.046282097633e+006 1.046282097633e+006 1.046282097632e+006 1.046282097632e+006 1.046282097632e+006 1.046282097632e+006 1.046282097633e+006 1.046282097631e+006 1.045906438107e+006 1.045906438106e+006 1.045906438106e+006 1.045906438107e+006 1.045906438107e+006 1.045906438107e+006 1.045906438107e+006 1.045906438107e+006 1.045906438107e+006 1.045512941066e+006 1.045512941067e+006 1.045512941066e+006 1.045512941067e+006 1.045512941066e+006 1.045512941067e+006 1.045512941066e+006 1.045512941067e+006 1.045512941067e+006 1.045115959024e+006 1.045115959023e+006 1.045115959023e+006 1.045115959022e+006 1.045115959023e+006 1.045115959022e+006 1.045115959023e+006 1.045115959023e+006 1.045115959023e+006 1.044680347061e+006 1.044680347061e+006 1.044680347061e+006 1.044680347062e+006 1.044680347061e+006 1.044680347061e+006 1.044680347061e+006 1.044680347061e+006 1.044680347060e+006 1.044257022499e+006 1.044257022498e+006 1.044257022499e+006 1.044257022499e+006 1.044257022499e+006 1.044257022499e+006 1.044257022499e+006 1.044257022499e+006 1.044257022498e+006 1.043800317077e+006 1.043800317078e+006 1.043800317078e+006 1.043800317078e+006 1.043800317078e+006 1.043800317078e+006 1.043800317078e+006 1.043800317078e+006 1.043800317078e+006 1.043329723088e+006 1.043329723088e+006 1.043329723087e+006 1.043329723088e+006 1.043329723087e+006 1.043329723088e+006 1.043329723088e+006 1.043329723087e+006 1.043329723088e+006 1.042865484091e+006 1.042865484090e+006 1.042865484091e+006 1.042865484091e+006 1.042865484091e+006 1.042865484090e+006 1.042865484091e+006 1.042865484090e+006 1.042865484090e+006 1.042354158967e+006 1.042354158968e+006 1.042354158967e+006 1.042354158967e+006 1.042354158968e+006 1.042354158967e+006 1.042354158968e+006 1.042354158968e+006 1.042354158968e+006 1.041856684785e+006 1.041856684785e+006 1.041856684785e+006 1.041856684785e+006 1.041856684785e+006 1.041856684785e+006 1.041856684785e+006 1.041856684785e+006 1.041856684785e+006 1.041338574383e+006 1.041338574383e+006 1.041338574383e+006 1.041338574383e+006 1.041338574383e+006 1.041338574383e+006 1.041338574383e+006 1.041338574383e+006 1.041338574382e+006 1.040789967683e+006 1.040789967683e+006 1.040789967683e+006 1.040789967683e+006 1.040789967683e+006 1.040789967683e+006 1.040789967683e+006 1.040789967683e+006 1.040789967683e+006 1.040260092375e+006 1.040260092375e+006 1.040260092375e+006 1.040260092375e+006 1.040260092375e+006 1.040260092375e+006 1.040260092375e+006 1.040260092374e+006 1.040260092375e+006 1.039690567526e+006 1.039690567526e+006 1.039690567526e+006 1.039690567526e+006 1.039690567526e+006 1.039690567526e+006 1.039690567526e+006 1.039690567526e+006 1.039690567526e+006 1.039116534802e+006 1.039116534802e+006 1.039116534802e+006 1.039116534802e+006 1.039116534802e+006 1.039116534802e+006 1.039116534802e+006 1.039116534802e+006 1.039116534802e+006 1.038542080291e+006 1.038542080291e+006 1.038542080291e+006 1.038542080291e+006 1.038542080291e+006 1.038542080291e+006 1.038542080291e+006 1.038542080291e+006 1.038542080291e+006 1.037936908756e+006 1.037936908756e+006 1.037936908756e+006 1.037936908756e+006 1.037936908756e+006 1.037936908756e+006 1.037936908756e+006 1.037936908756e+006 1.037936908756e+006 1.037330838051e+006 1.037330838051e+006 1.037330838051e+006 1.037330838051e+006 1.037330838050e+006 1.037330838050e+006 1.037330838050e+006 1.037330838051e+006 1.037330838050e+006 1.036724589225e+006 1.036724589225e+006 1.036724589225e+006 1.036724589225e+006 1.036724589225e+006 1.036724589225e+006 1.036724589225e+006 1.036724589225e+006 1.036724589225e+006 1.036079890926e+006 1.036079890926e+006 1.036079890926e+006 1.036079890926e+006 1.036079890926e+006 1.036079890926e+006 1.036079890926e+006 1.036079890926e+006 1.036079890926e+006 1.035445258788e+006 1.035445258788e+006 1.035445258788e+006 1.035445258788e+006 1.035445258788e+006 1.035445258788e+006 1.035445258788e+006 1.035445258788e+006 1.035445258788e+006 1.034798568269e+006 1.034798568269e+006 1.034798568269e+006 1.034798568269e+006 1.034798568269e+006 1.034798568269e+006 1.034798568269e+006 1.034798568269e+006 1.034798568269e+006 1.034137937582e+006 1.034137937583e+006 1.034137937582e+006 1.034137937582e+006 1.034137937583e+006 1.034137937583e+006 1.034137937583e+006 1.034137937582e+006 1.034137937582e+006 1.033478990211e+006 1.033478990211e+006 1.033478990211e+006 1.033478990211e+006 1.033478990211e+006 1.033478990211e+006 1.033478990211e+006 1.033478990212e+006 1.033478990211e+006 1.032788035083e+006 1.032788035083e+006 1.032788035083e+006 1.032788035083e+006 1.032788035082e+006 1.032788035082e+006 1.032788035083e+006 1.032788035083e+006 1.032788035082e+006 1.032093096201e+006 1.032093096201e+006 1.032093096201e+006 1.032093096201e+006 1.032093096201e+006 1.032093096201e+006 1.032093096201e+006 1.032093096201e+006 1.032093096201e+006 1.031426008527e+006 1.031426008527e+006 1.031426008527e+006 1.031426008527e+006 1.031426008527e+006 1.031426008527e+006 1.031426008527e+006 1.031426008527e+006 1.031426008527e+006 1.030713624690e+006 1.030713624691e+006 1.030713624690e+006 1.030713624690e+006 1.030713624691e+006 1.030713624690e+006 1.030713624691e+006 1.030713624690e+006 1.030713624691e+006 1.030003926049e+006 1.030003926050e+006 1.030003926049e+006 1.030003926049e+006 1.030003926049e+006 1.030003926049e+006 1.030003926049e+006 1.030003926050e+006 1.030003926049e+006 1.029286319248e+006 1.029286319247e+006 1.029286319247e+006 1.029286319248e+006 1.029286319248e+006 1.029286319248e+006 1.029286319248e+006 1.029286319247e+006 1.029286319247e+006 1.028553767769e+006 1.028553767768e+006 1.028553767769e+006 1.028553767768e+006 1.028553767768e+006 1.028553767768e+006 1.028553767768e+006 1.028553767768e+006 1.028553767769e+006 1.027833783185e+006 1.027833783185e+006 1.027833783185e+006 1.027833783185e+006 1.027833783185e+006 1.027833783185e+006 1.027833783185e+006 1.027833783185e+006 1.027833783185e+006 1.027108884647e+006 1.027108884646e+006 1.027108884646e+006 1.027108884646e+006 1.027108884646e+006 1.027108884646e+006 1.027108884646e+006 1.027108884647e+006 1.027108884647e+006 1.026364869010e+006 1.026364869010e+006 1.026364869010e+006 1.026364869010e+006 1.026364869010e+006 1.026364869010e+006 1.026364869009e+006 1.026364869009e+006 1.026364869009e+006 1.025614822196e+006 1.025614822197e+006 1.025614822196e+006 1.025614822196e+006 1.025614822196e+006 1.025614822197e+006 1.025614822196e+006 1.025614822196e+006 1.025614822197e+006 1.024878616680e+006 1.024878616681e+006 1.024878616680e+006 1.024878616681e+006 1.024878616681e+006 1.024878616681e+006 1.024878616681e+006 1.024878616681e+006 1.024878616681e+006 1.024127361766e+006 1.024127361766e+006 1.024127361767e+006 1.024127361766e+006 1.024127361765e+006 1.024127361765e+006 1.024127361766e+006 1.024127361766e+006 1.024127361765e+006 1.023324600010e+006 1.023324600010e+006 1.023324600010e+006 1.023324600011e+006 1.023324600010e+006 1.023324600011e+006 1.023324600011e+006 1.023324600011e+006 1.023324600011e+006 1.022610959608e+006 1.022610959608e+006 1.022610959608e+006 1.022610959608e+006 1.022610959609e+006 1.022610959609e+006 1.022610959609e+006 1.022610959609e+006 1.022610959608e+006 1.021888475145e+006 1.021888475145e+006 1.021888475144e+006 1.021888475141e+006 1.021888475139e+006 1.021888475137e+006 1.021888475137e+006 1.021888475136e+006 1.021888475137e+006 1.021085842459e+006 1.021085842458e+006 1.021085842461e+006 1.021085842469e+006 1.021085842475e+006 1.021085842478e+006 1.021085842479e+006 1.021085842481e+006 1.021085842480e+006 1.020259462299e+006 1.020259462300e+006 1.020259462297e+006 1.020259462282e+006 1.020259462273e+006 1.020259462269e+006 1.020259462266e+006 1.020259462265e+006 1.020259462264e+006 1.019652020329e+006 1.019652020329e+006 1.019652020329e+006 1.019652020353e+006 1.019652020362e+006 1.019652020367e+006 1.019652020371e+006 1.019652020373e+006 1.019652020373e+006 1.018710386169e+006 1.018710386167e+006 1.018710386170e+006 1.018710386146e+006 1.018710386141e+006 1.018710386136e+006 1.018710386133e+006 1.018710386131e+006 1.018710386131e+006 1.018135280915e+006 1.018135280918e+006 1.018135280914e+006 1.018135280923e+006 1.018135280921e+006 1.018135280924e+006 1.018135280925e+006 1.018135280926e+006 1.018135280925e+006 1.017246948394e+006 1.017246948396e+006 1.017246948390e+006 1.017246948404e+006 1.017246948401e+006 1.017246948404e+006 1.017246948404e+006 1.017246948404e+006 1.017246948405e+006 1.016501373942e+006 1.016501373943e+006 1.016501373937e+006 1.016501373943e+006 1.016501373938e+006 1.016501373939e+006 1.016501373940e+006 1.016501373939e+006 1.016501373940e+006 1.015796689079e+006 1.015796689079e+006 1.015796689075e+006 1.015796689078e+006 1.015796689075e+006 1.015796689075e+006 1.015796689075e+006 1.015796689075e+006 1.015796689075e+006 1.015045161413e+006 1.015045161412e+006 1.015045161412e+006 1.015045161412e+006 1.015045161411e+006 1.015045161410e+006 1.015045161411e+006 1.015045161411e+006 1.015045161410e+006 1.014312783597e+006 1.014312783597e+006 1.014312783597e+006 1.014312783597e+006 1.014312783597e+006 1.014312783597e+006 1.014312783598e+006 1.014312783598e+006 1.014312783597e+006 1.013558719333e+006 1.013558719333e+006 1.013558719333e+006 1.013558719334e+006 1.013558719334e+006 1.013558719333e+006 1.013558719334e+006 1.013558719334e+006 1.013558719334e+006 1.012825940931e+006 1.012825940932e+006 1.012825940932e+006 1.012825940933e+006 1.012825940933e+006 1.012825940932e+006 1.012825940933e+006 1.012825940932e+006 1.012825940932e+006 1.012151898921e+006 1.012151898921e+006 1.012151898921e+006 1.012151898921e+006 1.012151898921e+006 1.012151898920e+006 1.012151898921e+006 1.012151898921e+006 1.012151898921e+006 1.011434391704e+006 1.011434391702e+006 1.011434391702e+006 1.011434391702e+006 1.011434391703e+006 1.011434391702e+006 1.011434391702e+006 1.011434391702e+006 1.011434391703e+006 1.010767544241e+006 1.010767544242e+006 1.010767544241e+006 1.010767544241e+006 1.010767544240e+006 1.010767544241e+006 1.010767544242e+006 1.010767544241e+006 1.010767544240e+006 1.010124365150e+006 1.010124365149e+006 1.010124365149e+006 1.010124365149e+006 1.010124365149e+006 1.010124365149e+006 1.010124365149e+006 1.010124365149e+006 1.010124365149e+006 1.009485199304e+006 1.009485199304e+006 1.009485199304e+006 1.009485199303e+006 1.009485199304e+006 1.009485199304e+006 1.009485199303e+006 1.009485199303e+006 1.009485199303e+006 1.008959514561e+006 1.008959514561e+006 1.008959514561e+006 1.008959514561e+006 1.008959514561e+006 1.008959514561e+006 1.008959514560e+006 1.008959514560e+006 1.008959514560e+006 1.008532838670e+006 1.008532838670e+006 1.008532838670e+006 1.008532838670e+006 1.008532838670e+006 1.008532838670e+006 1.008532838670e+006 1.008532838670e+006 1.008532838670e+006 1.008106169949e+006 1.008106169949e+006 1.008106169950e+006 1.008106169949e+006 1.008106169950e+006 1.008106169950e+006 1.008106169949e+006 1.008106169949e+006 1.008106169949e+006 1.007679505509e+006 1.007679505509e+006 1.007679505509e+006 1.007679505509e+006 1.007679505509e+006 1.007679505509e+006 1.007679505509e+006 1.007679505509e+006 1.007679505508e+006 1.007252844914e+006 1.007252844914e+006 1.007252844914e+006 1.007252844914e+006 1.007252844914e+006 1.007252844914e+006 1.007252844913e+006 1.007252844913e+006 1.007252844913e+006 1.006826188028e+006 1.006826188028e+006 1.006826188028e+006 1.006826188028e+006 1.006826188028e+006 1.006826188028e+006 1.006826188028e+006 1.006826188028e+006 1.006826188028e+006 1.006399534677e+006 1.006399534677e+006 1.006399534676e+006 1.006399534676e+006 1.006399534676e+006 1.006399534676e+006 1.006399534676e+006 1.006399534676e+006 1.006399534676e+006 1.005972884644e+006 1.005972884644e+006 1.005972884644e+006 1.005972884643e+006 1.005972884643e+006 1.005972884643e+006 1.005972884643e+006 1.005972884643e+006 1.005972884643e+006 1.005546237698e+006 1.005546237698e+006 1.005546237698e+006 1.005546237698e+006 1.005546237698e+006 1.005546237698e+006 1.005546237698e+006 1.005546237698e+006 1.005546237698e+006 1.005119593608e+006 1.005119593608e+006 1.005119593608e+006 1.005119593608e+006 1.005119593608e+006 1.005119593608e+006 1.005119593607e+006 1.005119593607e+006 1.005119593607e+006 1.004692952137e+006 1.004692952137e+006 1.004692952137e+006 1.004692952137e+006 1.004692952137e+006 1.004692952136e+006 1.004692952136e+006 1.004692952136e+006 1.004692952136e+006 1.004266313049e+006 1.004266313049e+006 1.004266313049e+006 1.004266313049e+006 1.004266313049e+006 1.004266313049e+006 1.004266313049e+006 1.004266313049e+006 1.004266313049e+006 1.003839676106e+006 1.003839676106e+006 1.003839676106e+006 1.003839676106e+006 1.003839676106e+006 1.003839676106e+006 1.003839676106e+006 1.003839676106e+006 1.003839676106e+006 1.003413041069e+006 1.003413041069e+006 1.003413041069e+006 1.003413041069e+006 1.003413041069e+006 1.003413041069e+006 1.003413041069e+006 1.003413041069e+006 1.003413041069e+006 1.002986407694e+006 1.002986407694e+006 1.002986407694e+006 1.002986407694e+006 1.002986407694e+006 1.002986407694e+006 1.002986407694e+006 1.002986407694e+006 1.002986407694e+006 1.002559775738e+006 1.002559775738e+006 1.002559775738e+006 1.002559775738e+006 1.002559775738e+006 1.002559775738e+006 1.002559775738e+006 1.002559775738e+006 1.002559775738e+006 1.002133144956e+006 1.002133144956e+006 1.002133144956e+006 1.002133144956e+006 1.002133144956e+006 1.002133144956e+006 1.002133144956e+006 1.002133144956e+006 1.002133144956e+006 1.001706515102e+006 1.001706515101e+006 1.001706515101e+006 1.001706515101e+006 1.001706515102e+006 1.001706515101e+006 1.001706515102e+006 1.001706515102e+006 1.001706515102e+006 1.001279885927e+006 1.001279885927e+006 1.001279885927e+006 1.001279885927e+006 1.001279885927e+006 1.001279885927e+006 1.001279885927e+006 1.001279885927e+006 1.001279885927e+006 1.000853257185e+006 1.000853257185e+006 1.000853257185e+006 1.000853257185e+006 1.000853257185e+006 1.000853257185e+006 1.000853257185e+006 1.000853257185e+006 1.000853257185e+006 1.000426628625e+006 1.000426628625e+006 1.000426628625e+006 1.000426628625e+006 1.000426628625e+006 1.000426628625e+006 1.000426628625e+006 1.000426628625e+006 1.000426628625e+006 1.000000000000e+006 1.000000000000e+006 1.000000000000e+006 1.000000000000e+006 1.000000000000e+006 1.000000000000e+006 1.000000000000e+006 1.000000000000e+006 1.000000000000e+006 
        </DataArray>
        <DataArray type="Float64" Name="MOLAR_FRACTION" format="ascii">