<?xml version="1.0"?>
<VTKFile type="UnstructuredGrid" version="0.1" byte_order="LittleEndian">
  <UnstructuredGrid>
    <Piece NumberOfPoints="909" NumberOfCells="800">
      <Points>
        <DataArray type="Float64" NumberOfComponents="3" format="ascii">
          0.000000000000e+000 0.000000000000e+000 0.000000000000e+000
          2.000000000000e+000 0.000000000000e+000 0.000000000000e+000
          2.000000000000e+000 2.500000000000e+000 0.000000000000e+000
          0.000000000000e+000 2.500000000000e+000 0.000000000000e+000
          2.000000000000e+000 5.000000000000e+000 0.000000000000e+000
          0.000000000000e+000 5.000000000000e+000 0.000000000000e+000
          2.000000000000e+000 7.500000000000e+000 0.000000000000e+000
          0.000000000000e+000 7.500000000000e+000 0.000000000000e+000
          2.000000000000e+000 1.000000000000e+001 0.000000000000e+000
          0.000000000000e+000 1.000000000000e+001 0.000000000000e+000
          2.000000000000e+000 1.250000000000e+001 0.000000000000e+000
          0.000000000000e+000 1.250000000000e+001 0.000000000000e+000
          2.000000000000e+000 1.500000000000e+001 0.000000000000e+000
          0.000000000000e+000 1.500000000000e+001 0.000000000000e+000
          2.000000000000e+000 1.750000000000e+001 0.000000000000e+000
          0.000000000000e+000 1.750000000000e+001 0.000000000000e+000
          2.000000000000e+000 2.000000000000e+001 0.000000000000e+000
          0.000000000000e+000 2.000000000000e+001 0.000000000000e+000
          4.000000000000e+000 0.000000000000e+000 0.000000000000e+000
          4.000000000000e+000 2.500000000000e+000 0.000000000000e+000
          4.000000000000e+000 5.000000000000e+000 0.000000000000e+000
          4.000000000000e+000 7.500000000000e+000 0.000000000000e+000
          4.000000000000e+000 1.000000000000e+001 0.000000000000e+000
          4.000000000000e+000 1.250000000000e+001 0.000000000000e+000
          4.000000000000e+000 1.500000000000e+001 0.000000000000e+000
          4.000000000000e+000 1.750000000000e+001 0.000000000000e+000
          4.000000000000e+000 2.000000000000e+001 0.000000000000e+000
          6.000000000000e+000 0.000000000000e+000 0.000000000000e+000
          6.000000000000e+000 2.500000000000e+000 0.000000000000e+000
          6.000000000000e+000 5.000000000000e+000 0.000000000000e+000
          6.000000000000e+000 7.500000000000e+000 0.000000000000e+000
          6.000000000000e+000 1.000000000000e+001 0.000000000000e+000
          6.000000000000e+000 1.250000000000e+001 0.000000000000e+000
          6.000000000000e+000 1.500000000000e+001 0.000000000000e+000
          6.000000000000e+000 1.750000000000e+001 0.000000000000e+000
          6.000000000000e+000 2.000000000000e+001 0.000000000000e+000
          8.000000000000e+000 0.000000000000e+000 0.000000000000e+000
          8.000000000000e+000 2.500000000000e+000 0.000000000000e+000
          8.000000000000e+000 5.000000000000e+000 0.000000000000e+000
          8.000000000000e+000 7.500000000000e+000 0.000000000000e+000
          8.000000000000e+000 1.000000000000e+001 0.000000000000e+000
          8.000000000000e+000 1.250000000000e+001 0.000000000000e+000
          8.000000000000e+000 1.500000000000e+001 0.000000000000e+000
          8.000000000000e+000 1.750000000000e+001 0.000000000000e+000
          8.000000000000e+000 2.000000000000e+001 0.000000000000e+000
          1.000000000000e+001 0.000000000000e+000 0.000000000000e+000
          1.000000000000e+001 2.500000000000e+000 0.000000000000e+000
          1.000000000000e+001 5.000000000000e+000 0.000000000000e+000
          1.000000000000e+001 7.500000000000e+000 0.000000000000e+000
          1.000000000000e+001 1.000000000000e+001 0.000000000000e+000
          1.000000000000e+001 1.250000000000e+001 0.000000000000e+000
          1.000000000000e+001 1.500000000000e+001 0.000000000000e+000
          1.000000000000e+001 1.750000000000e+001 0.000000000000e+000
          1.000000000000e+001 2.000000000000e+001 0.000000000000e+000
          1.200000000000e+001 0.000000000000e+000 0.000000000000e+000
          1.200000000000e+001 2.500000000000e+000 0.000000000000e+000
          1.200000000000e+001 5.000000000000e+000 0.000000000000e+000
          1.200000000000e+001 7.500000000000e+000 0.000000000000e+000
          1.200000000000e+001 1.000000000000e+001 0.000000000000e+000
          1.200000000000e+001 1.250000000000e+001 0.000000000000e+000
          1.200000000000e+001 1.500000000000e+001 0.000000000000e+000
          1.200000000000e+001 1.750000000000e+001 0.000000000000e+000
          1.200000000000e+001 2.000000000000e+001 0.000000000000e+000
          1.400000000000e+001 0.000000000000e+000 0.000000000000e+000
          1.400000000000e+001 2.500000000000e+000 0.000000000000e+000
          1.400000000000e+001 5.000000000000e+000 0.000000000000e+000
          1.400000000000e+001 7.500000000000e+000 0.000000000000e+000
          1.400000000000e+001 1.000000000000e+001 0.000000000000e+000
          1.400000000000e+001 1.250000000000e+001 0.000000000000e+000
          1.400000000000e+001 1.500000000000e+001 0.000000000000e+000
          1.400000000000e+001 1.750000000000e+001 0.000000000000e+000
          1.400000000000e+001 2.000000000000e+001 0.000000000000e+000
          1.600000000000e+001 0.000000000000e+000 0.000000000000e+000
          1.600000000000e+001 2.500000000000e+000 0.000000000000e+000
          1.600000000000e+001 5.000000000000e+000 0.000000000000e+000
          1.600000000000e+001 7.500000000000e+000 0.000000000000e+000
          1.600000000000e+001 1.000000000000e+001 0.000000000000e+000
          1.600000000000e+001 1.250000000000e+001 0.000000000000e+000
          1.600000000000e+001 1.500000000000e+001 0.000000000000e+000
          1.600000000000e+001 1.750000000000e+001 0.000000000000e+000
          1.600000000000e+001 2.000000000000e+001 0.000000000000e+000
          1.800000000000e+001 0.000000000000e+000 0.000000000000e+000
          1.800000000000e+001 2.500000000000e+000 0.000000000000e+000
          1.800000000000e+001 5.000000000000e+000 0.000000000000e+000
          1.800000000000e+001 7.500000000000e+000 0.000000000000e+000
          1.800000000000e+001 1.000000000000e+001 0.000000000000e+000
          1.800000000000e+001 1.250000000000e+001 0.000000000000e+000
          1.800000000000e+001 1.500000000000e+001 0.000000000000e+000
          1.800000000000e+001 1.750000000000e+001 0.000000000000e+000
          1.800000000000e+001 2.000000000000e+001 0.000000000000e+000
          2.000000000000e+001 0.000000000000e+000 0.000000000000e+000
          2.000000000000e+001 2.500000000000e+000 0.000000000000e+000
          2.000000000000e+001 5.000000000000e+000 0.000000000000e+000
          2.000000000000e+001 7.500000000000e+000 0.000000000000e+000
          2.000000000000e+001 1.000000000000e+001 0.000000000000e+000
          2.000000000000e+001 1.250000000000e+001 0.000000000000e+000
          2.000000000000e+001 1.500000000000e+001 0.000000000000e+000
          2.000000000000e+001 1.750000000000e+001 0.000000000000e+000
          2.000000000000e+001 2.000000000000e+001 0.000000000000e+000
          2.200000000000e+001 0.000000000000e+000 0.000000000000e+000
          2.200000000000e+001 2.500000000000e+000 0.000000000000e+000
          2.200000000000e+001 5.000000000000e+000 0.000000000000e+000
          2.200000000000e+001 7.500000000000e+000 0.000000000000e+000
          2.200000000000e+001 1.000000000000e+001 0.000000000000e+000
          2.200000000000e+001 1.250000000000e+001 0.000000000000e+000
          2.200000000000e+001 1.500000000000e+001 0.000000000000e+000
          2.200000000000e+001 1.750000000000e+001 0.000000000000e+000
          2.200000000000e+001 2.000000000000e+001 0.000000000000e+000
          2.400000000000e+001 0.000000000000e+000 0.000000000000e+000
          2.400000000000e+001 2.500000000000e+000 0.000000000000e+000
          2.400000000000e+001 5.000000000000e+000 0.000000000000e+000
          2.400000000000e+001 7.500000000000e+000 0.000000000000e+000
          2.400000000000e+001 1.000000000000e+001 0.000000000000e+000
          2.400000000000e+001 1.250000000000e+001 0.000000000000e+000
          2.400000000000e+001 1.500000000000e+001 0.000000000000e+000
          2.400000000000e+001 1.750000000000e+001 0.000000000000e+000
          2.400000000000e+001 2.000000000000e+001 0.000000000000e+000
          2.600000000000e+001 0.000000000000e+000 0.000000000000e+000
          2.600000000000e+001 2.500000000000e+000 0.000000000000e+000
          2.600000000000e+001 5.000000000000e+000 0.000000000000e+000
          2.600000000000e+001 7.500000000000e+000 0.000000000000e+000
          2.600000000000e+001 1.000000000000e+001 0.000000000000e+000
          2.600000000000e+001 1.250000000000e+001 0.000000000000e+000
          2.600000000000e+001 1.500000000000e+001 0.000000000000e+000
          2.600000000000e+001 1.750000000000e+001 0.000000000000e+000
          2.600000000000e+001 2.000000000000e+001 0.000000000000e+000
          2.800000000000e+001 0.000000000000e+000 0.000000000000e+000
          2.800000000000e+001 2.500000000000e+000 0.000000000000e+000
          2.800000000000e+001 5.000000000000e+000 0.000000000000e+000
          2.800000000000e+001 7.500000000000e+000 0.000000000000e+000
          2.800000000000e+001 1.000000000000e+001 0.000000000000e+000
          2.800000000000e+001 1.250000000000e+001 0.000000000000e+000
          2.800000000000e+001 1.500000000000e+001 0.000000000000e+000
          2.800000000000e+001 1.750000000000e+001 0.000000000000e+000
          2.800000000000e+001 2.000000000000e+001 0.000000000000e+000
          3.000000000000e+001 0.000000000000e+000 0.000000000000e+000
          3.000000000000e+001 2.500000000000e+000 0.000000000000e+000
          3.000000000000e+001 5.000000000000e+000 0.000000000000e+000
          3.000000000000e+001 7.500000000000e+000 0.000000000000e+000
[...]
      <PointData Scalars="LIQUID_PRESSURE">
        <DataArray type="Float64" Name="LIQUID_PRESSURE" format="ascii">
          1.067609249139e+006 1.067616934778e+006 1.067616934793e+006 1.067609249050e+006 1.067616934819e+006 1.067609248989e+006 1.067616934783e+006 1.067609249082e+006 1.067616934804e+006 1.067609249059e+006 1.067616934848e+006 1.067609248937e+006 1.067616934834e+006 1.067609248927e+006 1.067616934851e+006 1.067609248882e+006 1.067616934882e+006 1.067609248809e+006 1.067581501503e+006 1.067581501542e+006 1.067581501564e+006 1.067581501519e+006 1.067581501527e+006 1.067581501579e+006 1.067581501555e+006 1.067581501574e+006 1.067581501609e+006 1.067496058829e+006 1.067496058857e+006 1.067496058871e+006 1.067496058839e+006 1.067496058846e+006 1.067496058870e+006 1.067496058850e+006 1.067496058854e+006 1.067496058869e+006 1.067448548525e+006 1.067448548539e+006 1.067448548553e+006 1.067448548527e+006 1.067448548527e+006 1.067448548538e+006 1.067448548524e+006 1.067448548519e+006 1.067448548530e+006 1.067323931359e+006 1.067323931370e+006 1.067323931374e+006 1.067323931366e+006 1.067323931358e+006 1.067323931373e+006 1.067323931362e+006 1.067323931358e+006 1.067323931365e+006 1.067184616904e+006 1.067184616910e+006 1.067184616915e+006 1.067184616908e+006 1.067184616908e+006 1.067184616912e+006 1.067184616909e+006 1.067184616909e+006 1.067184616910e+006 1.067062783461e+006 1.067062783462e+006 1.067062783466e+006 1.067062783460e+006 1.067062783464e+006 1.067062783463e+006 1.067062783463e+006 1.067062783462e+006 1.067062783463e+006 1.066855937483e+006 1.066855937481e+006 1.066855937483e+006 1.066855937481e+006 1.066855937483e+006 1.066855937484e+006 1.066855937484e+006 1.066855937486e+006 1.066855937482e+006 1.066678402321e+006 1.066678402319e+006 1.066678402321e+006 1.066678402320e+006 1.066678402320e+006 1.066678402319e+006 1.066678402319e+006 1.066678402319e+006 1.066678402320e+006 1.066456228344e+006 1.066456228347e+006 1.066456228347e+006 1.066456228346e+006 1.066456228347e+006 1.066456228346e+006 1.066456228346e+006 1.066456228346e+006 1.066456228346e+006 1.066201116559e+006 1.066201116562e+006 1.066201116560e+006 1.066201116561e+006 1.066201116559e+006 1.066201116559e+006 1.066201116564e+006 1.066201116561e+006 1.066201116563e+006 1.065952533668e+006 1.065952533667e+006 1.065952533668e+006 1.065952533667e+006 1.065952533666e+006 1.065952533669e+006 1.065952533666e+006 1.065952533667e+006 1.065952533667e+006 1.065644181872e+006 1.065644181871e+006 1.065644181873e+006 1.065644181873e+006 1.065644181874e+006 1.065644181873e+006 1.065644181872e+006 1.065644181872e+006 1.065644181872e+006 1.065353238213e+006 1.065353238216e+006 1.065353238213e+006 1.065353238216e+006 1.065353238214e+006 1.065353238215e+006 1.065353238216e+006 1.065353238216e+006 1.065353238214e+006 1.065010089688e+006 1.065010089687e+006 1.065010089690e+006 1.065010089687e+006 1.065010089689e+006 1.065010089687e+006 1.065010089688e+006 1.065010089687e+006 1.065010089688e+006 1.064659006095e+006 1.064659006092e+006 1.064659006092e+006 1.064659006093e+006 1.064659006090e+006 1.064659006094e+006 1.064659006092e+006 1.064659006093e+006 1.064659006091e+006 1.064292103739e+006 1.064292103740e+006 1.064292103739e+006 1.064292103740e+006 1.064292103739e+006 1.064292103739e+006 1.064292103740e+006 1.064292103740e+006 1.064292103739e+006 1.063873778917e+006 1.063873778917e+006 1.063873778916e+006 1.063873778916e+006 1.063873778917e+006 1.063873778918e+006 1.063873778917e+006 1.063873778916e+006 1.063873778918e+006 1.063479257170e+006 1.063479257169e+006 1.063479257169e+006 1.063479257169e+006 1.063479257169e+006 1.063479257169e+006 1.063479257169e+006 1.063479257169e+006 1.063479257170e+006 1.063022045376e+006 1.063022045374e+006 1.063022045376e+006 1.063022045375e+006 1.063022045375e+006 1.063022045376e+006 1.063022045375e+006 1.063022045375e+006 1.063022045375e+006 1.062569515333e+006 1.062569515333e+006 1.062569515334e+006 1.062569515332e+006 1.062569515333e+006 1.062569515332e+006 1.062569515332e+006 1.062569515333e+006 1.062569515331e+006 1.062087550304e+006 1.062087550303e+006 1.062087550304e+006 1.062087550305e+006 1.062087550304e+006 1.062087550305e+006 1.062087550304e+006 1.062087550304e+006 1.062087550305e+006 1.061583231746e+006 1.061583231746e+006 1.061583231746e+006 1.061583231746e+006 1.061583231745e+006 1.061583231746e+006 1.061583231746e+006 1.061583231746e+006 1.061583231746e+006 1.061070162649e+006 1.061070162648e+006 1.061070162648e+006 1.061070162647e+006 1.061070162649e+006 1.061070162647e+006 1.061070162648e+006 1.061070162648e+006 1.061070162648e+006 1.060512938074e+006 1.060512938074e+006 1.060512938074e+006 1.060512938075e+006 1.060512938074e+006 1.060512938074e+006 1.060512938074e+006 1.060512938074e+006 1.060512938074e+006 1.059964602407e+006 1.059964602406e+006 1.059964602406e+006 1.059964602406e+006 1.059964602406e+006 1.059964602406e+006 1.059964602406e+006 1.059964602407e+006 1.059964602406e+006 1.059376754735e+006 1.059376754736e+006 1.059376754736e+006 1.059376754736e+006 1.059376754736e+006 1.059376754736e+006 1.059376754736e+006 1.059376754736e+006 1.059376754736e+006 1.058771319590e+006 1.058771319591e+006 1.058771319590e+006 1.058771319590e+006 1.058771319590e+006 1.058771319590e+006 1.058771319590e+006 1.058771319590e+006 1.058771319590e+006 1.058167744741e+006 1.058167744740e+006 1.058167744741e+006 1.058167744741e+006 1.058167744741e+006 1.058167744741e+006 1.058167744741e+006 1.058167744740e+006 1.058167744741e+006 1.057510742542e+006 1.057510742543e+006 1.057510742543e+006 1.057510742542e+006 1.057510742543e+006 1.057510742543e+006 1.057510742543e+006 1.057510742543e+006 1.057510742543e+006 1.056864715554e+006 1.056864715554e+006 1.056864715554e+006 1.056864715554e+006 1.056864715554e+006 1.056864715554e+006 1.056864715555e+006 1.056864715554e+006 1.056864715555e+006 1.056192037179e+006 1.056192037180e+006 1.056192037180e+006 1.056192037180e+006 1.056192037180e+006 1.056192037180e+006 1.056192037179e+006 1.056192037180e+006 1.056192037179e+006 1.055484092022e+006 1.055484092022e+006 1.055484092022e+006 1.055484092022e+006 1.055484092022e+006 1.055484092022e+006 1.055484092022e+006 1.055484092022e+006 1.055484092022e+006 1.054791598500e+006 1.054791598500e+006 1.054791598500e+006 1.054791598500e+006 1.054791598500e+006 1.054791598500e+006 1.054791598500e+006 1.054791598500e+006 1.054791598500e+006 1.054053234315e+006 1.054053234315e+006 1.054053234315e+006 1.054053234315e+006 1.054053234315e+006 1.054053234315e+006 1.054053234315e+006 1.054053234315e+006 1.054053234315e+006 1.053306480425e+006 1.053306480425e+006 1.053306480425e+006 1.053306480425e+006 1.053306480425e+006 1.053306480425e+006 1.053306480425e+006 1.053306480425e+006 1.053306480425e+006 1.052555264225e+006 1.052555264225e+006 1.052555264225e+006 1.052555264225e+006 1.052555264225e+006 1.052555264225e+006 1.052555264225e+006 1.052555264225e+006 1.052555264225e+006 1.051767765312e+006 1.051767765312e+006 1.051767765312e+006 1.051767765312e+006 1.051767765312e+006 1.051767765312e+006 1.051767765312e+006 1.051767765312e+006 1.051767765312e+006 1.050975849677e+006 1.050975849677e+006 1.050975849677e+006 1.050975849678e+006 1.050975849677e+006 1.050975849677e+006 1.050975849677e+006 1.050975849677e+006 1.050975849677e+006 1.050179351408e+006 1.050179351408e+006 1.050179351408e+006 1.050179351408e+006 1.050179351408e+006 1.050179351408e+006 1.050179351408e+006 1.050179351408e+006 1.050179351408e+006 1.049337719888e+006 1.049337719888e+006 1.049337719888e+006 1.049337719888e+006 1.049337719888e+006 1.049337719888e+006 1.049337719888e+006 1.049337719888e+006 1.049337719888e+006 1.048503715663e+006 1.048503715662e+006 1.048503715663e+006 1.048503715662e+006 1.048503715663e+006 1.048503715662e+006 1.048503715662e+006 1.048503715662e+006 1.048503715663e+006 1.047653627937e+006 1.047653627936e+006 1.047653627937e+006 1.047653627937e+006 1.047653627937e+006 1.047653627937e+006 1.047653627937e+006 1.047653627937e+006 1.047653627936e+006 1.046785607658e+006 1.046785607658e+006 1.046785607658e+006 1.046785607658e+006 1.046785607658e+006 1.046785607658e+006 1.046785607658e+006 1.046785607658e+006 1.046785607658e+006 1.045913910322e+006 1.045913910322e+006 1.045913910322e+006 1.045913910322e+006 1.045913910322e+006 1.045913910322e+006 1.045913910322e+006 1.045913910322e+006 1.045913910322e+006 1.045003978338e+006 1.045003978338e+006 1.045003978338e+006 1.045003978338e+006 1.045003978338e+006 1.045003978338e+006 1.045003978338e+006 1.045003978338e+006 1.045003978338e+006 1.044088286329e+006 1.044088286330e+006 1.044088286329e+006 1.044088286330e+006 1.044088286330e+006 1.044088286330e+006 1.044088286330e+006 1.044088286330e+006 1.044088286330e+006 1.043200022047e+006 1.043200022047e+006 1.043200022047e+006 1.043200022046e+006 1.043200022047e+006 1.043200022047e+006 1.043200022046e+006 1.043200022047e+006 1.043200022047e+006 1.042258978993e+006 1.042258978994e+006 1.042258978993e+006 1.042258978993e+006 1.042258978994e+006 1.042258978993e+006 1.042258978993e+006 1.042258978993e+006 1.042258978994e+006 1.041314589596e+006 1.041314589596e+006 1.041314589596e+006 1.041314589596e+006 1.041314589596e+006 1.041314589596e+006 1.041314589596e+006 1.041314589596e+006 1.041314589596e+006 1.040358193060e+006 1.040358193059e+006 1.040358193060e+006 1.040358193060e+006 1.040358193060e+006 1.040358193060e+006 1.040358193060e+006 1.040358193060e+006 1.040358193059e+006 1.039383537182e+006 1.039383537182e+006 1.039383537182e+006 1.039383537182e+006 1.039383537182e+006 1.039383537182e+006 1.039383537182e+006 1.039383537182e+006 1.039383537183e+006 1.038422497375e+006 1.038422497375e+006 1.038422497375e+006 1.038422497375e+006 1.038422497375e+006 1.038422497375e+006 1.038422497375e+006 1.038422497375e+006 1.038422497375e+006 1.037453656174e+006 1.037453656173e+006 1.037453656173e+006 1.037453656174e+006 1.037453656174e+006 1.037453656174e+006 1.037453656173e+006 1.037453656174e+006 1.037453656174e+006 1.036459149185e+006 1.036459149185e+006 1.036459149185e+006 1.036459149185e+006 1.036459149185e+006 1.036459149185e+006 1.036459149185e+006 1.036459149185e+006 1.036459149185e+006 1.035452550026e+006 1.035452550027e+006 1.035452550027e+006 1.035452550026e+006 1.035452550027e+006 1.035452550027e+006 1.035452550027e+006 1.035452550027e+006 1.035452550027e+006 1.034460572166e+006 1.034460572167e+006 1.034460572166e+006 1.034460572166e+006 1.034460572166e+006 1.034460572166e+006 1.034460572166e+006 1.034460572166e+006 1.034460572166e+006 1.033440707540e+006 1.033440707539e+006 1.033440707541e+006 1.033440707540e+006 1.033440707539e+006 1.033440707539e+006 1.033440707540e+006 1.033440707540e+006 1.033440707540e+006 1.032372596707e+006 1.032372596708e+006 1.032372596707e+006 1.032372596709e+006 1.032372596708e+006 1.032372596709e+006 1.032372596709e+006 1.032372596709e+006 1.032372596709e+006 1.031400065433e+006 1.031400065433e+006 1.031400065433e+006 1.031400065432e+006 1.031400065431e+006 1.031400065431e+006 1.031400065430e+006 1.031400065430e+006 1.031400065430e+006 1.030419040547e+006 1.030419040547e+006 1.030419040546e+006 1.030419040546e+006 1.030419040546e+006 1.030419040545e+006 1.030419040545e+006 1.030419040545e+006 1.030419040545e+006 1.029334829976e+006 1.029334829977e+006 1.029334829979e+006 1.029334829984e+006 1.029334829989e+006 1.029334829991e+006 1.029334829992e+006 1.029334829993e+006 1.029334829993e+006 1.028232244995e+006 1.028232244995e+006 1.028232244992e+006 1.028232244979e+006 1.028232244970e+006 1.028232244966e+006 1.028232244963e+006 1.028232244962e+006 1.028232244961e+006 1.027355511505e+006 1.027355511505e+006 1.027355511507e+006 1.027355511529e+006 1.027355511539e+006 1.027355511543e+006 1.027355511547e+006 1.027355511549e+006 1.027355511550e+006 1.026130553100e+006 1.026130553100e+006 1.026130553102e+006 1.026130553077e+006 1.026130553071e+006 1.026130553066e+006 1.026130553063e+006 1.026130553061e+006 1.026130553060e+006 1.025285729342e+006 1.025285729345e+006 1.025285729340e+006 1.025285729350e+006 1.025285729348e+006 1.025285729351e+006 1.025285729351e+006 1.025285729352e+006 1.025285729351e+006 1.024107539998e+006 1.024107539999e+006 1.024107539993e+006 1.024107540008e+006 1.024107540006e+006 1.024107540009e+006 1.024107540010e+006 1.024107540009e+006 1.024107540010e+006 1.023075291390e+006 1.023075291390e+006 1.023075291385e+006 1.023075291392e+006 1.023075291388e+006 1.023075291388e+006 1.023075291390e+006 1.023075291389e+006 1.023075291389e+006 1.022099384643e+006 1.022099384642e+006 1.022099384638e+006 1.022099384641e+006 1.022099384638e+006 1.022099384637e+006 1.022099384638e+006 1.022099384637e+006 1.022099384638e+006 1.021071443998e+006 1.021071443996e+006 1.021071443995e+006 1.021071443996e+006 1.021071443994e+006 1.021071443993e+006 1.021071443994e+006 1.021071443993e+006 1.021071443992e+006 1.020070151888e+006 1.020070151887e+006 1.020070151887e+006 1.020070151887e+006 1.020070151887e+006 1.020070151887e+006 1.020070151888e+006 1.020070151887e+006 1.020070151886e+006 1.019031890758e+006 1.019031890758e+006 1.019031890757e+006 1.019031890759e+006 1.019031890758e+006 1.019031890757e+006 1.019031890758e+006 1.019031890758e+006 1.019031890758e+006 1.018016082961e+006 1.018016082962e+006 1.018016082962e+006 1.018016082963e+006 1.018016082963e+006 1.018016082962e+006 1.018016082962e+006 1.018016082962e+006 1.018016082962e+006 1.017072622608e+006 1.017072622608e+006 1.017072622609e+006 1.017072622609e+006 1.017072622609e+006 1.017072622608e+006 1.017072622609e+006 1.017072622609e+006 1.017072622609e+006 1.016092846908e+006 1.016092846906e+006 1.016092846906e+006 1.016092846907e+006 1.016092846907e+006 1.016092846907e+006 1.016092846906e+006 1.016092846907e+006 1.016092846908e+006 1.015169309558e+006 1.015169309558e+006 1.015169309558e+006 1.015169309558e+006 1.015169309557e+006 1.015169309558e+006 1.015169309558e+006 1.015169309557e+006 1.015169309556e+006 1.014297920977e+006 1.014297920976e+006 1.014297920976e+006 1.014297920976e+006 1.014297920975e+006 1.014297920976e+006 1.014297920976e+006 1.014297920976e+006 1.014297920975e+006 1.013474779632e+006 1.013474779632e+006 1.013474779632e+006 1.013474779632e+006 1.013474779632e+006 1.013474779632e+006 1.013474779631e+006 1.013474779631e+006 1.013474779631e+006 1.012843462640e+006 1.012843462640e+006 1.012843462640e+006 1.012843462640e+006 1.012843462640e+006 1.012843462640e+006 1.012843462639e+006 1.012843462639e+006 1.012843462639e+006 1.012231810737e+006 1.012231810737e+006 1.012231810737e+006 1.012231810737e+006 1.012231810737e+006 1.012231810737e+006 1.012231810737e+006 1.012231810737e+006 1.012231810737e+006 1.011620167716e+006 1.011620167716e+006 1.011620167717e+006 1.011620167716e+006 1.011620167717e+006 1.011620167716e+006 1.011620167716e+006 1.011620167716e+006 1.011620167716e+006 1.011008533014e+006 1.011008533014e+006 1.011008533014e+006 1.011008533014e+006 1.011008533014e+006 1.011008533014e+006 1.011008533013e+006 1.011008533013e+006 1.011008533013e+006 1.010396906100e+006 1.010396906100e+006 1.010396906100e+006 1.010396906100e+006 1.010396906100e+006 1.010396906100e+006 1.010396906100e+006 1.010396906100e+006 1.010396906100e+006 1.009785286480e+006 1.009785286480e+006 1.009785286480e+006 1.009785286480e+006 1.009785286480e+006 1.009785286480e+006 1.009785286480e+006 1.009785286480e+006 1.009785286479e+006 1.009173673693e+006 1.009173673693e+006 1.009173673693e+006 1.009173673692e+006 1.009173673692e+006 1.009173673692e+006 1.009173673692e+006 1.009173673692e+006 1.009173673692e+006 1.008562067298e+006 1.008562067298e+006 1.008562067298e+006 1.008562067298e+006 1.008562067298e+006 1.008562067298e+006 1.008562067298e+006 1.008562067298e+006 1.008562067298e+006 1.007950466860e+006 1.007950466860e+006 1.007950466860e+006 1.007950466860e+006 1.007950466860e+006 1.007950466860e+006 1.007950466860e+006 1.007950466860e+006 1.007950466860e+006 1.007338871942e+006 1.007338871942e+006 1.007338871942e+006 1.007338871942e+006 1.007338871942e+006 1.007338871942e+006 1.007338871942e+006 1.007338871941e+006 1.007338871942e+006 1.006727282104e+006 1.006727282104e+006 1.006727282104e+006 1.006727282104e+006 1.006727282104e+006 1.006727282104e+006 1.006727282104e+006 1.006727282103e+006 1.006727282103e+006 1.006115696902e+006 1.006115696902e+006 1.006115696902e+006 1.006115696902e+006 1.006115696902e+006 1.006115696902e+006 1.006115696902e+006 1.006115696902e+006 1.006115696902e+006 1.005504115891e+006 1.005504115891e+006 1.005504115891e+006 1.005504115891e+006 1.005504115891e+006 1.005504115891e+006 1.005504115891e+006 1.005504115890e+006 1.005504115891e+006 1.004892538619e+006 1.004892538619e+006 1.004892538619e+006 1.004892538619e+006 1.004892538619e+006 1.004892538619e+006 1.004892538619e+006 1.004892538619e+006 1.004892538619e+006 1.004280964634e+006 1.004280964634e+006 1.004280964634e+006 1.004280964634e+006 1.004280964634e+006 1.004280964634e+006 1.004280964634e+006 1.004280964634e+006 1.004280964634e+006 1.003669393477e+006 1.003669393477e+006 1.003669393477e+006 1.003669393477e+006 1.003669393477e+006 1.003669393477e+006 1.003669393477e+006 1.003669393477e+006 1.003669393477e+006 1.003057824690e+006 1.003057824690e+006 1.003057824690e+006 1.003057824690e+006 1.003057824690e+006 1.003057824690e+006 1.003057824690e+006 1.003057824690e+006 1.003057824690e+006 1.002446257808e+006 1.002446257807e+006 1.002446257807e+006 1.002446257807e+006 1.002446257808e+006 1.002446257807e+006 1.002446257808e+006 1.002446257808e+006 1.002446257808e+006 1.001834692365e+006 1.001834692365e+006 1.001834692365e+006 1.001834692365e+006 1.001834692365e+006 1.001834692365e+006 1.001834692365e+006 1.001834692366e+006 1.001834692365e+006 1.001223127896e+006 1.001223127896e+006 1.001223127896e+006 1.001223127896e+006 1.001223127896e+006 1.001223127896e+006 1.001223127896e+006 1.001223127896e+006 1.001223127896e+006 1.000611563931e+006 1.000611563931e+006 1.000611563931e+006 1.000611563931e+006 1.000611563931e+006 1.000611563931e+006 1.000611563931e+006 1.000611563931e+006 1.000611563931e+006 1.000000000000e+006 1.000000000000e+006 1.000000000000e+006 1.000000000000e+006 1.000000000000e+006 1.000000000000e+006 1.000000000000e+006 1.000000000000e+006 1.000000000000e+006 
        </DataArray>
        <DataArray type="Float64" Name="MOLAR_FRACTION" format="ascii">