<?xml version="1.0"?>
<VTKFile type="UnstructuredGrid" version="0.1" byte_order="LittleEndian">
  <UnstructuredGrid>
    <Piece NumberOfPoints="909" NumberOfCells="800">
      <Points>
        <DataArray type="Float64" NumberOfComponents="3" format="ascii">
          0.000000000000e+000 0.000000000000e+000 0.000000000000e+000
          2.000000000000e+000 0.000000000000e+000 0.000000000000e+000
          2.000000000000e+000 2.500000000000e+000 0.000000000000e+000
          0.000000000000e+000 2.500000000000e+000 0.000000000000e+000
          2.000000000000e+000 5.000000000000e+000 0.000000000000e+000
          0.000000000000e+000 5.000000000000e+000 0.000000000000e+000
          2.000000000000e+000 7.500000000000e+000 0.000000000000e+000
          0.000000000000e+000 7.500000000000e+000 0.000000000000e+000
          2.000000000000e+000 1.000000000000e+001 0.000000000000e+000
          0.000000000000e+000 1.000000000000e+001 0.000000000000e+000
          2.000000000000e+000 1.250000000000e+001 0.000000000000e+000
          0.000000000000e+000 1.250000000000e+001 0.000000000000e+000
          2.000000000000e+000 1.500000000000e+001 0.000000000000e+000
          0.000000000000e+000 1.500000000000e+001 0.000000000000e+000
          2.000000000000e+000 1.750000000000e+001 0.000000000000e+000
          0.000000000000e+000 1.750000000000e+001 0.000000000000e+000
          2.000000000000e+000 2.000000000000e+001 0.000000000000e+000
          0.000000000000e+000 2.000000000000e+001 0.000000000000e+000
          4.000000000000e+000 0.000000000000e+000 0.000000000000e+000
          4.000000000000e+000 2.500000000000e+000 0.000000000000e+000
          4.000000000000e+000 5.000000000000e+000 0.000000000000e+000
          4.000000000000e+000 7.500000000000e+000 0.000000000000e+000
          4.000000000000e+000 1.000000000000e+001 0.000000000000e+000
          4.000000000000e+000 1.250000000000e+001 0.000000000000e+000
          4.000000000000e+000 1.500000000000e+001 0.000000000000e+000
          4.000000000000e+000 1.750000000000e+001 0.000000000000e+000
          4.000000000000e+000 2.000000000000e+001 0.000000000000e+000
          6.000000000000e+000 0.000000000000e+000 0.000000000000e+000
          6.000000000000e+000 2.500000000000e+000 0.000000000000e+000
          6.000000000000e+000 5.000000000000e+000 0.000000000000e+000
          6.000000000000e+000 7.500000000000e+000 0.000000000000e+000
          6.000000000000e+000 1.000000000000e+001 0.000000000000e+000
          6.000000000000e+000 1.250000000000e+001 0.000000000000e+000
          6.000000000000e+000 1.500000000000e+001 0.000000000000e+000
          6.000000000000e+000 1.750000000000e+001 0.000000000000e+000
          6.000000000000e+000 2.000000000000e+001 0.000000000000e+000
          8.000000000000e+000 0.000000000000e+000 0.000000000000e+000
          8.000000000000e+000 2.500000000000e+000 0.000000000000e+000
          8.000000000000e+000 5.000000000000e+000 0.000000000000e+000
          8.000000000000e+000 7.500000000000e+000 0.000000000000e+000
          8.000000000000e+000 1.000000000000e+001 0.000000000000e+000
          8.000000000000e+000 1.250000000000e+001 0.000000000000e+000
          8.000000000000e+000 1.500000000000e+001 0.000000000000e+000
          8.000000000000e+000 1.750000000000e+001 0.000000000000e+000
          8.000000000000e+000 2.000000000000e+001 0.000000000000e+000
          1.000000000000e+001 0.000000000000e+000 0.000000000000e+000
          1.000000000000e+001 2.500000000000e+000 0.000000000000e+000
          1.000000000000e+001 5.000000000000e+000 0.000000000000e+000
          1.000000000000e+001 7.500000000000e+000 0.000000000000e+000
          1.000000000000e+001 1.000000000000e+001 0.000000000000e+000
          1.000000000000e+001 1.250000000000e+001 0.000000000000e+000
          1.000000000000e+001 1.500000000000e+001 0.000000000000e+000
          1.000000000000e+001 1.750000000000e+001 0.000000000000e+000
          1.000000000000e+001 2.000000000000e+001 0.000000000000e+000
          1.200000000000e+001 0.000000000000e+000 0.000000000000e+000
          1.200000000000e+001 2.500000000000e+000 0.000000000000e+000
          1.200000000000e+001 5.000000000000e+000 0.000000000000e+000
          1.200000000000e+001 7.500000000000e+000 0.000000000000e+000
          1.200000000000e+001 1.000000000000e+001 0.000000000000e+000
          1.200000000000e+001 1.250000000000e+001 0.000000000000e+000
          1.200000000000e+001 1.500000000000e+001 0.000000000000e+000
          1.200000000000e+001 1.750000000000e+001 0.000000000000e+000
          1.200000000000e+001 2.000000000000e+001 0.000000000000e+000
          1.400000000000e+001 0.000000000000e+000 0.000000000000e+000
          1.400000000000e+001 2.500000000000e+000 0.000000000000e+000
          1.400000000000e+001 5.000000000000e+000 0.000000000000e+000
          1.400000000000e+001 7.500000000000e+000 0.000000000000e+000
          1.400000000000e+001 1.000000000000e+001 0.000000000000e+000
          1.400000000000e+001 1.250000000000e+001 0.000000000000e+000
          1.400000000000e+001 1.500000000000e+001 0.000000000000e+000
          1.400000000000e+001 1.750000000000e+001 0.000000000000e+000
          1.400000000000e+001 2.000000000000e+001 0.000000000000e+000
          1.600000000000e+001 0.000000000000e+000 0.000000000000e+000
          1.600000000000e+001 2.500000000000e+000 0.000000000000e+000
          1.600000000000e+001 5.000000000000e+000 0.000000000000e+000
          1.600000000000e+001 7.500000000000e+000 0.000000000000e+000
          1.600000000000e+001 1.000000000000e+001 0.000000000000e+000
          1.600000000000e+001 1.250000000000e+001 0.000000000000e+000
          1.600000000000e+001 1.500000000000e+001 0.000000000000e+000
          1.600000000000e+001 1.750000000000e+001 0.000000000000e+000
          1.600000000000e+001 2.000000000000e+001 0.000000000000e+000
          1.800000000000e+001 0.000000000000e+000 0.000000000000e+000
          1.800000000000e+001 2.500000000000e+000 0.000000000000e+000
          1.800000000000e+001 5.000000000000e+000 0.000000000000e+000
          1.800000000000e+001 7.500000000000e+000 0.000000000000e+000
          1.800000000000e+001 1.000000000000e+001 0.000000000000e+000
          1.800000000000e+001 1.250000000000e+001 0.000000000000e+000
          1.800000000000e+001 1.500000000000e+001 0.000000000000e+000
          1.800000000000e+001 1.750000000000e+001 0.000000000000e+000
          1.800000000000e+001 2.000000000000e+001 0.000000000000e+000
          2.000000000000e+001 0.000000000000e+000 0.000000000000e+000
          2.000000000000e+001 2.500000000000e+000 0.000000000000e+000
          2.000000000000e+001 5.000000000000e+000 0.000000000000e+000
          2.000000000000e+001 7.500000000000e+000 0.000000000000e+000
          2.000000000000e+001 1.000000000000e+001 0.000000000000e+000
          2.000000000000e+001 1.250000000000e+001 0.000000000000e+000
          2.000000000000e+001 1.500000000000e+001 0.000000000000e+000
          2.000000000000e+001 1.750000000000e+001 0.000000000000e+000
          2.000000000000e+001 2.000000000000e+001 0.000000000000e+000
          2.200000000000e+001 0.000000000000e+000 0.000000000000e+000
          2.200000000000e+001 2.500000000000e+000 0.000000000000e+000
          2.200000000000e+001 5.000000000000e+000 0.000000000000e+000
          2.200000000000e+001 7.500000000000e+000 0.000000000000e+000
          2.200000000000e+001 1.000000000000e+001 0.000000000000e+000
          2.200000000000e+001 1.250000000000e+001 0.000000000000e+000
          2.200000000000e+001 1.500000000000e+001 0.000000000000e+000
          2.200000000000e+001 1.750000000000e+001 0.000000000000e+000
          2.200000000000e+001 2.000000000000e+001 0.000000000000e+000
          2.400000000000e+001 0.000000000000e+000 0.000000000000e+000
          2.400000000000e+001 2.500000000000e+000 0.000000000000e+000
          2.400000000000e+001 5.000000000000e+000 0.000000000000e+000
          2.400000000000e+001 7.500000000000e+000 0.000000000000e+000
          2.400000000000e+001 1.000000000000e+001 0.000000000000e+000
          2.400000000000e+001 1.250000000000e+001 0.000000000000e+000
          2.400000000000e+001 1.500000000000e+001 0.000000000000e+000
          2.400000000000e+001 1.750000000000e+001 0.000000000000e+000
          2.400000000000e+001 2.000000000000e+001 0.000000000000e+000
          2.600000000000e+001 0.000000000000e+000 0.000000000000e+000
          2.600000000000e+001 2.500000000000e+000 0.000000000000e+000
          2.600000000000e+001 5.000000000000e+000 0.000000000000e+000
          2.600000000000e+001 7.500000000000e+000 0.000000000000e+000
          2.600000000000e+001 1.000000000000e+001 0.000000000000e+000
          2.600000000000e+001 1.250000000000e+001 0.000000000000e+000
          2.600000000000e+001 1.500000000000e+001 0.000000000000e+000
          2.600000000000e+001 1.750000000000e+001 0.000000000000e+000
          2.600000000000e+001 2.000000000000e+001 0.000000000000e+000
          2.800000000000e+001 0.000000000000e+000 0.000000000000e+000
          2.800000000000e+001 2.500000000000e+000 0.000000000000e+000
          2.800000000000e+001 5.000000000000e+000 0.000000000000e+000
          2.800000000000e+001 7.500000000000e+000 0.000000000000e+000
          2.800000000000e+001 1.000000000000e+001 0.000000000000e+000
          2.800000000000e+001 1.250000000000e+001 0.000000000000e+000
          2.800000000000e+001 1.500000000000e+001 0.000000000000e+000
          2.800000000000e+001 1.750000000000e+001 0.000000000000e+000
          2.800000000000e+001 2.000000000000e+001 0.000000000000e+000
          3.000000000000e+001 0.000000000000e+000 0.000000000000e+000
          3.000000000000e+001 2.500000000000e+000 0.000000000000e+000
          3.000000000000e+001 5.000000000000e+000 0.000000000000e+000
          3.000000000000e+001 7.500000000000e+000 0.000000000000e+000
[...]
      <PointData Scalars="LIQUID_PRESSURE">
        <DataArray type="Float64" Name="LIQUID_PRESSURE" format="ascii">
          1.136462390236e+006 1.136454130981e+006 1.136454131001e+006 1.136462390120e+006 1.136454131030e+006 1.136462390039e+006 1.136454130983e+006 1.136462390141e+006 1.136454131005e+006 1.136462390101e+006 1.136454131034e+006 1.136462389911e+006 1.136454130981e+006 1.136462389812e+006 1.136454130974e+006 1.136462389707e+006 1.136454131004e+006 1.136462389612e+006 1.136340768899e+006 1.136340768969e+006 1.136340769011e+006 1.136340768944e+006 1.136340768966e+006 1.136340769051e+006 1.136340769035e+006 1.136340769067e+006 1.136340769120e+006 1.136164065706e+006 1.136164065761e+006 1.136164065797e+006 1.136164065747e+006 1.136164065765e+006 1.136164065824e+006 1.136164065822e+006 1.136164065843e+006 1.136164065872e+006 1.135969467393e+006 1.135969467428e+006 1.135969467459e+006 1.135969467419e+006 1.135969467422e+006 1.135969467456e+006 1.135969467456e+006 1.135969467460e+006 1.135969467475e+006 1.135658307068e+006 1.135658307091e+006 1.135658307107e+006 1.135658307087e+006 1.135658307077e+006 1.135658307103e+006 1.135658307100e+006 1.135658307097e+006 1.135658307108e+006 1.135310283959e+006 1.135310283974e+006 1.135310283985e+006 1.135310283971e+006 1.135310283965e+006 1.135310283976e+006 1.135310283975e+006 1.135310283975e+006 1.135310283975e+006 1.134917348985e+006 1.134917348991e+006 1.134917348995e+006 1.134917348984e+006 1.134917348984e+006 1.134917348983e+006 1.134917348986e+006 1.134917348984e+006 1.134917348986e+006 1.134422032634e+006 1.134422032633e+006 1.134422032635e+006 1.134422032626e+006 1.134422032625e+006 1.134422032626e+006 1.134422032625e+006 1.134422032629e+006 1.134422032623e+006 1.133895254888e+006 1.133895254886e+006 1.133895254886e+006 1.133895254880e+006 1.133895254876e+006 1.133895254873e+006 1.133895254875e+006 1.133895254874e+006 1.133895254875e+006 1.133276768797e+006 1.133276768799e+006 1.133276768798e+006 1.133276768791e+006 1.133276768788e+006 1.133276768787e+006 1.133276768786e+006 1.133276768789e+006 1.133276768788e+006 1.132585375727e+006 1.132585375730e+006 1.132585375728e+006 1.132585375725e+006 1.132585375721e+006 1.132585375719e+006 1.132585375726e+006 1.132585375722e+006 1.132585375725e+006 1.131838335111e+006 1.131838335111e+006 1.131838335112e+006 1.131838335112e+006 1.131838335108e+006 1.131838335111e+006 1.131838335107e+006 1.131838335108e+006 1.131838335108e+006 1.131013471625e+006 1.131013471624e+006 1.131013471629e+006 1.131013471629e+006 1.131013471631e+006 1.131013471628e+006 1.131013471627e+006 1.131013471624e+006 1.131013471625e+006 1.130152365503e+006 1.130152365507e+006 1.130152365505e+006 1.130152365510e+006 1.130152365508e+006 1.130152365511e+006 1.130152365509e+006 1.130152365509e+006 1.130152365506e+006 1.129209860188e+006 1.129209860188e+006 1.129209860191e+006 1.129209860190e+006 1.129209860194e+006 1.129209860191e+006 1.129209860193e+006 1.129209860190e+006 1.129209860189e+006 1.128201203382e+006 1.128201203379e+006 1.128201203380e+006 1.128201203381e+006 1.128201203380e+006 1.128201203384e+006 1.128201203382e+006 1.128201203383e+006 1.128201203381e+006 1.127110493192e+006 1.127110493193e+006 1.127110493192e+006 1.127110493194e+006 1.127110493194e+006 1.127110493195e+006 1.127110493196e+006 1.127110493198e+006 1.127110493195e+006 1.125944129632e+006 1.125944129632e+006 1.125944129630e+006 1.125944129631e+006 1.125944129633e+006 1.125944129636e+006 1.125944129634e+006 1.125944129634e+006 1.125944129635e+006 1.124719192525e+006 1.124719192525e+006 1.124719192523e+006 1.124719192523e+006 1.124719192525e+006 1.124719192525e+006 1.124719192525e+006 1.124719192523e+006 1.124719192526e+006 1.123417523621e+006 1.123417523619e+006 1.123417523620e+006 1.123417523619e+006 1.123417523619e+006 1.123417523621e+006 1.123417523619e+006 1.123417523619e+006 1.123417523619e+006 1.122062585207e+006 1.122062585206e+006 1.122062585207e+006 1.122062585205e+006 1.122062585204e+006 1.122062585204e+006 1.122062585203e+006 1.122062585204e+006 1.122062585202e+006 1.120636532560e+006 1.120636532557e+006 1.120636532559e+006 1.120636532559e+006 1.120636532558e+006 1.120636532558e+006 1.120636532557e+006 1.120636532557e+006 1.120636532557e+006 1.119129645874e+006 1.119129645874e+006 1.119129645873e+006 1.119129645874e+006 1.119129645871e+006 1.119129645873e+006 1.119129645871e+006 1.119129645871e+006 1.119129645872e+006 1.117543048721e+006 1.117543048719e+006 1.117543048720e+006 1.117543048718e+006 1.117543048719e+006 1.117543048718e+006 1.117543048718e+006 1.117543048718e+006 1.117543048718e+006 1.115879175000e+006 1.115879174999e+006 1.115879175000e+006 1.115879175001e+006 1.115879175000e+006 1.115879175000e+006 1.115879174999e+006 1.115879174999e+006 1.115879174999e+006 1.114158304264e+006 1.114158304263e+006 1.114158304264e+006 1.114158304264e+006 1.114158304264e+006 1.114158304264e+006 1.114158304263e+006 1.114158304264e+006 1.114158304263e+006 1.112378465230e+006 1.112378465230e+006 1.112378465230e+006 1.112378465231e+006 1.112378465231e+006 1.112378465230e+006 1.112378465231e+006 1.112378465232e+006 1.112378465231e+006 1.110537355312e+006 1.110537355313e+006 1.110537355312e+006 1.110537355313e+006 1.110537355312e+006 1.110537355313e+006 1.110537355313e+006 1.110537355314e+006 1.110537355314e+006 1.108645180576e+006 1.108645180575e+006 1.108645180576e+006 1.108645180576e+006 1.108645180575e+006 1.108645180576e+006 1.108645180576e+006 1.108645180577e+006 1.108645180577e+006 1.106720584463e+006 1.106720584463e+006 1.106720584463e+006 1.106720584463e+006 1.106720584464e+006 1.106720584464e+006 1.106720584465e+006 1.106720584466e+006 1.106720584466e+006 1.104824566590e+006 1.104824566590e+006 1.104824566589e+006 1.104824566589e+006 1.104824566590e+006 1.104824566590e+006 1.104824566592e+006 1.104824566592e+006 1.104824566593e+006 1.103303030175e+006 1.103303030176e+006 1.103303030175e+006 1.103303030175e+006 1.103303030176e+006 1.103303030176e+006 1.103303030177e+006 1.103303030178e+006 1.103303030178e+006 1.101781604315e+006 1.101781604315e+006 1.101781604315e+006 1.101781604315e+006 1.101781604315e+006 1.101781604316e+006 1.101781604316e+006 1.101781604317e+006 1.101781604316e+006 1.100260285218e+006 1.100260285217e+006 1.100260285217e+006 1.100260285217e+006 1.100260285217e+006 1.100260285218e+006 1.100260285218e+006 1.100260285218e+006 1.100260285218e+006 1.098739070280e+006 1.098739070279e+006 1.098739070279e+006 1.098739070279e+006 1.098739070279e+006 1.098739070279e+006 1.098739070279e+006 1.098739070279e+006 1.098739070279e+006 1.097217957400e+006 1.097217957400e+006 1.097217957400e+006 1.097217957399e+006 1.097217957400e+006 1.097217957400e+006 1.097217957400e+006 1.097217957399e+006 1.097217957399e+006 1.095696944666e+006 1.095696944666e+006 1.095696944666e+006 1.095696944666e+006 1.095696944666e+006 1.095696944666e+006 1.095696944666e+006 1.095696944666e+006 1.095696944666e+006 1.094176030209e+006 1.094176030209e+006 1.094176030209e+006 1.094176030209e+006 1.094176030209e+006 1.094176030209e+006 1.094176030209e+006 1.094176030209e+006 1.094176030209e+006 1.092655212158e+006 1.092655212158e+006 1.092655212158e+006 1.092655212158e+006 1.092655212158e+006 1.092655212158e+006 1.092655212158e+006 1.092655212158e+006 1.092655212158e+006 1.091134488636e+006 1.091134488636e+006 1.091134488636e+006 1.091134488636e+006 1.091134488636e+006 1.091134488636e+006 1.091134488636e+006 1.091134488636e+006 1.091134488636e+006 1.089613857757e+006 1.089613857757e+006 1.089613857757e+006 1.089613857757e+006 1.089613857757e+006 1.089613857757e+006 1.089613857757e+006 1.089613857757e+006 1.089613857757e+006 1.088093317641e+006 1.088093317641e+006 1.088093317641e+006 1.088093317641e+006 1.088093317641e+006 1.088093317641e+006 1.088093317641e+006 1.088093317641e+006 1.088093317641e+006 1.086572866420e+006 1.086572866420e+006 1.086572866420e+006 1.086572866420e+006 1.086572866420e+006 1.086572866420e+006 1.086572866420e+006 1.086572866420e+006 1.086572866420e+006 1.085052502240e+006 1.085052502240e+006 1.085052502240e+006 1.085052502240e+006 1.085052502240e+006 1.085052502241e+006 1.085052502241e+006 1.085052502240e+006 1.085052502240e+006 1.083532223264e+006 1.083532223264e+006 1.083532223265e+006 1.083532223264e+006 1.083532223264e+006 1.083532223265e+006 1.083532223265e+006 1.083532223265e+006 1.083532223265e+006 1.082012027672e+006 1.082012027673e+006 1.082012027672e+006 1.082012027673e+006 1.082012027672e+006 1.082012027673e+006 1.082012027673e+006 1.082012027673e+006 1.082012027673e+006 1.080491913663e+006 1.080491913663e+006 1.080491913663e+006 1.080491913663e+006 1.080491913663e+006 1.080491913663e+006 1.080491913663e+006 1.080491913663e+006 1.080491913663e+006 1.078971879451e+006 1.078971879451e+006 1.078971879451e+006 1.078971879451e+006 1.078971879451e+006 1.078971879451e+006 1.078971879451e+006 1.078971879451e+006 1.078971879451e+006 1.077451923270e+006 1.077451923270e+006 1.077451923270e+006 1.077451923270e+006 1.077451923270e+006 1.077451923270e+006 1.077451923270e+006 1.077451923270e+006 1.077451923270e+006 1.075932043368e+006 1.075932043368e+006 1.075932043368e+006 1.075932043368e+006 1.075932043368e+006 1.075932043368e+006 1.075932043368e+006 1.075932043368e+006 1.075932043368e+006 1.074412238009e+006 1.074412238009e+006 1.074412238009e+006 1.074412238009e+006 1.074412238009e+006 1.074412238009e+006 1.074412238009e+006 1.074412238009e+006 1.074412238009e+006 1.072892505471e+006 1.072892505471e+006 1.072892505471e+006 1.072892505471e+006 1.072892505472e+006 1.072892505472e+006 1.072892505472e+006 1.072892505472e+006 1.072892505471e+006 1.071372844047e+006 1.071372844047e+006 1.071372844047e+006 1.071372844047e+006 1.071372844047e+006 1.071372844047e+006 1.071372844047e+006 1.071372844047e+006 1.071372844047e+006 1.069853252042e+006 1.069853252042e+006 1.069853252042e+006 1.069853252042e+006 1.069853252042e+006 1.069853252042e+006 1.069853252042e+006 1.069853252042e+006 1.069853252042e+006 1.068333727776e+006 1.068333727776e+006 1.068333727776e+006 1.068333727776e+006 1.068333727776e+006 1.068333727776e+006 1.068333727776e+006 1.068333727776e+006 1.068333727776e+006 1.066814269580e+006 1.066814269580e+006 1.066814269580e+006 1.066814269580e+006 1.066814269580e+006 1.066814269580e+006 1.066814269580e+006 1.066814269580e+006 1.066814269580e+006 1.065294875799e+006 1.065294875800e+006 1.065294875800e+006 1.065294875800e+006 1.065294875800e+006 1.065294875800e+006 1.065294875800e+006 1.065294875799e+006 1.065294875800e+006 1.063775544791e+006 1.063775544791e+006 1.063775544791e+006 1.063775544791e+006 1.063775544791e+006 1.063775544791e+006 1.063775544790e+006 1.063775544791e+006 1.063775544791e+006 1.062256274922e+006 1.062256274921e+006 1.062256274922e+006 1.062256274922e+006 1.062256274921e+006 1.062256274921e+006 1.062256274921e+006 1.062256274921e+006 1.062256274921e+006 1.060737064573e+006 1.060737064573e+006 1.060737064572e+006 1.060737064573e+006 1.060737064572e+006 1.060737064572e+006 1.060737064572e+006 1.060737064572e+006 1.060737064572e+006 1.059217912134e+006 1.059217912134e+006 1.059217912134e+006 1.059217912134e+006 1.059217912133e+006 1.059217912133e+006 1.059217912133e+006 1.059217912133e+006 1.059217912133e+006 1.057698816008e+006 1.057698816008e+006 1.057698816008e+006 1.057698816008e+006 1.057698816008e+006 1.057698816007e+006 1.057698816007e+006 1.057698816007e+006 1.057698816007e+006 1.056179774607e+006 1.056179774607e+006 1.056179774607e+006 1.056179774607e+006 1.056179774607e+006 1.056179774607e+006 1.056179774607e+006 1.056179774607e+006 1.056179774607e+006 1.054660786355e+006 1.054660786355e+006 1.054660786355e+006 1.054660786355e+006 1.054660786355e+006 1.054660786355e+006 1.054660786355e+006 1.054660786355e+006 1.054660786354e+006 1.053141849685e+006 1.053141849684e+006 1.053141849684e+006 1.053141849684e+006 1.053141849684e+006 1.053141849684e+006 1.053141849684e+006 1.053141849684e+006 1.053141849684e+006 1.051622963039e+006 1.051622963039e+006 1.051622963039e+006 1.051622963039e+006 1.051622963039e+006 1.051622963039e+006 1.051622963038e+006 1.051622963038e+006 1.051622963038e+006 1.050104124871e+006 1.050104124871e+006 1.050104124871e+006 1.050104124871e+006 1.050104124871e+006 1.050104124871e+006 1.050104124870e+006 1.050104124871e+006 1.050104124871e+006 1.048585333643e+006 1.048585333643e+006 1.048585333643e+006 1.048585333643e+006 1.048585333643e+006 1.048585333643e+006 1.048585333643e+006 1.048585333643e+006 1.048585333643e+006 1.047066587827e+006 1.047066587827e+006 1.047066587827e+006 1.047066587827e+006 1.047066587827e+006 1.047066587827e+006 1.047066587827e+006 1.047066587827e+006 1.047066587827e+006 1.045547885903e+006 1.045547885903e+006 1.045547885903e+006 1.045547885903e+006 1.045547885903e+006 1.045547885903e+006 1.045547885903e+006 1.045547885903e+006 1.045547885903e+006 1.044029226361e+006 1.044029226361e+006 1.044029226361e+006 1.044029226361e+006 1.044029226360e+006 1.044029226360e+006 1.044029226360e+006 1.044029226360e+006 1.044029226360e+006 1.042510607698e+006 1.042510607698e+006 1.042510607698e+006 1.042510607698e+006 1.042510607698e+006 1.042510607698e+006 1.042510607698e+006 1.042510607698e+006 1.042510607698e+006 1.040992028420e+006 1.040992028420e+006 1.040992028420e+006 1.040992028420e+006 1.040992028420e+006 1.040992028420e+006 1.040992028420e+006 1.040992028420e+006 1.040992028420e+006 1.039473487043e+006 1.039473487043e+006 1.039473487043e+006 1.039473487043e+006 1.039473487043e+006 1.039473487043e+006 1.039473487043e+006 1.039473487043e+006 1.039473487043e+006 1.037954982088e+006 1.037954982088e+006 1.037954982088e+006 1.037954982088e+006 1.037954982088e+006 1.037954982088e+006 1.037954982088e+006 1.037954982087e+006 1.037954982087e+006 1.036436512084e+006 1.036436512084e+006 1.036436512084e+006 1.036436512084e+006 1.036436512084e+006 1.036436512084e+006 1.036436512084e+006 1.036436512083e+006 1.036436512083e+006 1.034918075568e+006 1.034918075568e+006 1.034918075568e+006 1.034918075568e+006 1.034918075568e+006 1.034918075568e+006 1.034918075568e+006 1.034918075568e+006 1.034918075568e+006 1.033399671085e+006 1.033399671085e+006 1.033399671085e+006 1.033399671085e+006 1.033399671085e+006 1.033399671085e+006 1.033399671085e+006 1.033399671085e+006 1.033399671085e+006 1.031881297184e+006 1.031881297184e+006 1.031881297184e+006 1.031881297184e+006 1.031881297184e+006 1.031881297184e+006 1.031881297184e+006 1.031881297184e+006 1.031881297184e+006 1.030362952424e+006 1.030362952424e+006 1.030362952424e+006 1.030362952424e+006 1.030362952424e+006 1.030362952424e+006 1.030362952424e+006 1.030362952424e+006 1.030362952424e+006 1.028844635367e+006 1.028844635367e+006 1.028844635367e+006 1.028844635367e+006 1.028844635367e+006 1.028844635367e+006 1.028844635367e+006 1.028844635367e+006 1.028844635367e+006 1.027326344583e+006 1.027326344583e+006 1.027326344583e+006 1.027326344583e+006 1.027326344583e+006 1.027326344583e+006 1.027326344583e+006 1.027326344583e+006 1.027326344583e+006 1.025808078647e+006 1.025808078647e+006 1.025808078647e+006 1.025808078648e+006 1.025808078648e+006 1.025808078648e+006 1.025808078648e+006 1.025808078648e+006 1.025808078647e+006 1.024289836140e+006 1.024289836140e+006 1.024289836140e+006 1.024289836140e+006 1.024289836140e+006 1.024289836140e+006 1.024289836140e+006 1.024289836140e+006 1.024289836140e+006 1.022771615647e+006 1.022771615647e+006 1.022771615647e+006 1.022771615647e+006 1.022771615647e+006 1.022771615647e+006 1.022771615647e+006 1.022771615647e+006 1.022771615647e+006 1.021253415757e+006 1.021253415757e+006 1.021253415757e+006 1.021253415757e+006 1.021253415757e+006 1.021253415757e+006 1.021253415757e+006 1.021253415757e+006 1.021253415757e+006 1.019735235067e+006 1.019735235067e+006 1.019735235067e+006 1.019735235067e+006 1.019735235067e+006 1.019735235067e+006 1.019735235067e+006 1.019735235067e+006 1.019735235067e+006 1.018217072175e+006 1.018217072175e+006 1.018217072175e+006 1.018217072175e+006 1.018217072175e+006 1.018217072175e+006 1.018217072175e+006 1.018217072175e+006 1.018217072175e+006 1.016698925683e+006 1.016698925683e+006 1.016698925683e+006 1.016698925683e+006 1.016698925683e+006 1.016698925683e+006 1.016698925683e+006 1.016698925683e+006 1.016698925683e+006 1.015180794199e+006 1.015180794199e+006 1.015180794199e+006 1.015180794199e+006 1.015180794199e+006 1.015180794199e+006 1.015180794199e+006 1.015180794199e+006 1.015180794199e+006 1.013662676331e+006 1.013662676331e+006 1.013662676331e+006 1.013662676331e+006 1.013662676331e+006 1.013662676331e+006 1.013662676331e+006 1.013662676331e+006 1.013662676331e+006 1.012144570692e+006 1.012144570692e+006 1.012144570692e+006 1.012144570692e+006 1.012144570692e+006 1.012144570692e+006 1.012144570692e+006 1.012144570692e+006 1.012144570692e+006 1.010626475897e+006 1.010626475897e+006 1.010626475897e+006 1.010626475897e+006 1.010626475897e+006 1.010626475897e+006 1.010626475896e+006 1.010626475896e+006 1.010626475896e+006 1.009108390563e+006 1.009108390563e+006 1.009108390563e+006 1.009108390563e+006 1.009108390563e+006 1.009108390562e+006 1.009108390562e+006 1.009108390562e+006 1.009108390562e+006 1.007590313309e+006 1.007590313309e+006 1.007590313309e+006 1.007590313309e+006 1.007590313309e+006 1.007590313309e+006 1.007590313309e+006 1.007590313309e+006 1.007590313309e+006 1.006072242756e+006 1.006072242756e+006 1.006072242756e+006 1.006072242756e+006 1.006072242756e+006 1.006072242756e+006 1.006072242756e+006 1.006072242756e+006 1.006072242756e+006 1.004554177526e+006 1.004554177526e+006 1.004554177526e+006 1.004554177526e+006 1.004554177526e+006 1.004554177526e+006 1.004554177526e+006 1.004554177526e+006 1.004554177525e+006 1.003036116241e+006 1.003036116241e+006 1.003036116241e+006 1.003036116241e+006 1.003036116241e+006 1.003036116241e+006 1.003036116241e+006 1.003036116241e+006 1.003036116241e+006 1.001518057524e+006 1.001518057524e+006 1.001518057524e+006 1.001518057524e+006 1.001518057524e+006 1.001518057524e+006 1.001518057524e+006 1.001518057524e+006 1.001518057524e+006 1.000000000000e+006 1.000000000000e+006 1.000000000000e+006 1.000000000000e+006 1.000000000000e+006 1.000000000000e+006 1.000000000000e+006 1.000000000000e+006 1.000000000000e+006 
        </DataArray>
        <DataArray type="Float64" Name="MOLAR_FRACTION" format="ascii">