<?xml version="1.0"?>
<VTKFile type="UnstructuredGrid" version="0.1" byte_order="LittleEndian">
  <UnstructuredGrid>
    <Piece NumberOfPoints="909" NumberOfCells="800">
      <Points>
        <DataArray type="Float64" NumberOfComponents="3" format="ascii">
          0.000000000000e+000 0.000000000000e+000 0.000000000000e+000
          2.000000000000e+000 0.000000000000e+000 0.000000000000e+000
          2.000000000000e+000 2.500000000000e+000 0.000000000000e+000
          0.000000000000e+000 2.500000000000e+000 0.000000000000e+000
          2.000000000000e+000 5.000000000000e+000 0.000000000000e+000
          0.000000000000e+000 5.000000000000e+000 0.000000000000e+000
          2.000000000000e+000 7.500000000000e+000 0.000000000000e+000
          0.000000000000e+000 7.500000000000e+000 0.000000000000e+000
          2.000000000000e+000 1.000000000000e+001 0.000000000000e+000
          0.000000000000e+000 1.000000000000e+001 0.000000000000e+000
          2.000000000000e+000 1.250000000000e+001 0.000000000000e+000
          0.000000000000e+000 1.250000000000e+001 0.000000000000e+000
          2.000000000000e+000 1.500000000000e+001 0.000000000000e+000
          0.000000000000e+000 1.500000000000e+001 0.000000000000e+000
          2.000000000000e+000 1.750000000000e+001 0.000000000000e+000
          0.000000000000e+000 1.750000000000e+001 0.000000000000e+000
          2.000000000000e+000 2.000000000000e+001 0.000000000000e+000
          0.000000000000e+000 2.000000000000e+001 0.000000000000e+000
          4.000000000000e+000 0.000000000000e+000 0.000000000000e+000
          4.000000000000e+000 2.500000000000e+000 0.000000000000e+000
          4.000000000000e+000 5.000000000000e+000 0.000000000000e+000
          4.000000000000e+000 7.500000000000e+000 0.000000000000e+000
          4.000000000000e+000 1.000000000000e+001 0.000000000000e+000
          4.000000000000e+000 1.250000000000e+001 0.000000000000e+000
          4.000000000000e+000 1.500000000000e+001 0.000000000000e+000
          4.000000000000e+000 1.750000000000e+001 0.000000000000e+000
          4.000000000000e+000 2.000000000000e+001 0.000000000000e+000
          6.000000000000e+000 0.000000000000e+000 0.000000000000e+000
          6.000000000000e+000 2.500000000000e+000 0.000000000000e+000
          6.000000000000e+000 5.000000000000e+000 0.000000000000e+000
          6.000000000000e+000 7.500000000000e+000 0.000000000000e+000
          6.000000000000e+000 1.000000000000e+001 0.000000000000e+000
          6.000000000000e+000 1.250000000000e+001 0.000000000000e+000
          6.000000000000e+000 1.500000000000e+001 0.000000000000e+000
          6.000000000000e+000 1.750000000000e+001 0.000000000000e+000
          6.000000000000e+000 2.000000000000e+001 0.000000000000e+000
          8.000000000000e+000 0.000000000000e+000 0.000000000000e+000
          8.000000000000e+000 2.500000000000e+000 0.000000000000e+000
          8.000000000000e+000 5.000000000000e+000 0.000000000000e+000
          8.000000000000e+000 7.500000000000e+000 0.000000000000e+000
          8.000000000000e+000 1.000000000000e+001 0.000000000000e+000
          8.000000000000e+000 1.250000000000e+001 0.000000000000e+000
          8.000000000000e+000 1.500000000000e+001 0.000000000000e+000
          8.000000000000e+000 1.750000000000e+001 0.000000000000e+000
          8.000000000000e+000 2.000000000000e+001 0.000000000000e+000
          1.000000000000e+001 0.000000000000e+000 0.000000000000e+000
          1.000000000000e+001 2.500000000000e+000 0.000000000000e+000
          1.000000000000e+001 5.000000000000e+000 0.000000000000e+000
          1.000000000000e+001 7.500000000000e+000 0.000000000000e+000
          1.000000000000e+001 1.000000000000e+001 0.000000000000e+000
          1.000000000000e+001 1.250000000000e+001 0.000000000000e+000
          1.000000000000e+001 1.500000000000e+001 0.000000000000e+000
          1.000000000000e+001 1.750000000000e+001 0.000000000000e+000
          1.000000000000e+001 2.000000000000e+001 0.000000000000e+000
          1.200000000000e+001 0.000000000000e+000 0.000000000000e+000
          1.200000000000e+001 2.500000000000e+000 0.000000000000e+000
          1.200000000000e+001 5.000000000000e+000 0.000000000000e+000
          1.200000000000e+001 7.500000000000e+000 0.000000000000e+000
          1.200000000000e+001 1.000000000000e+001 0.000000000000e+000
          1.200000000000e+001 1.250000000000e+001 0.000000000000e+000
          1.200000000000e+001 1.500000000000e+001 0.000000000000e+000
          1.200000000000e+001 1.750000000000e+001 0.000000000000e+000
          1.200000000000e+001 2.000000000000e+001 0.000000000000e+000
          1.400000000000e+001 0.000000000000e+000 0.000000000000e+000
          1.400000000000e+001 2.500000000000e+000 0.000000000000e+000
          1.400000000000e+001 5.000000000000e+000 0.000000000000e+000
          1.400000000000e+001 7.500000000000e+000 0.000000000000e+000
          1.400000000000e+001 1.000000000000e+001 0.000000000000e+000
          1.400000000000e+001 1.250000000000e+001 0.000000000000e+000
          1.400000000000e+001 1.500000000000e+001 0.000000000000e+000
          1.400000000000e+001 1.750000000000e+001 0.000000000000e+000
          1.400000000000e+001 2.000000000000e+001 0.000000000000e+000
          1.600000000000e+001 0.000000000000e+000 0.000000000000e+000
          1.600000000000e+001 2.500000000000e+000 0.000000000000e+000
          1.600000000000e+001 5.000000000000e+000 0.000000000000e+000
          1.600000000000e+001 7.500000000000e+000 0.000000000000e+000
          1.600000000000e+001 1.000000000000e+001 0.000000000000e+000
          1.600000000000e+001 1.250000000000e+001 0.000000000000e+000
          1.600000000000e+001 1.500000000000e+001 0.000000000000e+000
          1.600000000000e+001 1.750000000000e+001 0.000000000000e+000
          1.600000000000e+001 2.000000000000e+001 0.000000000000e+000
          1.800000000000e+001 0.000000000000e+000 0.000000000000e+000
          1.800000000000e+001 2.500000000000e+000 0.000000000000e+000
          1.800000000000e+001 5.000000000000e+000 0.000000000000e+000
          1.800000000000e+001 7.500000000000e+000 0.000000000000e+000
          1.800000000000e+001 1.000000000000e+001 0.000000000000e+000
          1.800000000000e+001 1.250000000000e+001 0.000000000000e+000
          1.800000000000e+001 1.500000000000e+001 0.000000000000e+000
          1.800000000000e+001 1.750000000000e+001 0.000000000000e+000
          1.800000000000e+001 2.000000000000e+001 0.000000000000e+000
          2.000000000000e+001 0.000000000000e+000 0.000000000000e+000
          2.000000000000e+001 2.500000000000e+000 0.000000000000e+000
          2.000000000000e+001 5.000000000000e+000 0.000000000000e+000
          2.000000000000e+001 7.500000000000e+000 0.000000000000e+000
          2.000000000000e+001 1.000000000000e+001 0.000000000000e+000
          2.000000000000e+001 1.250000000000e+001 0.000000000000e+000
          2.000000000000e+001 1.500000000000e+001 0.000000000000e+000
          2.000000000000e+001 1.750000000000e+001 0.000000000000e+000
          2.000000000000e+001 2.000000000000e+001 0.000000000000e+000
          2.200000000000e+001 0.000000000000e+000 0.000000000000e+000
          2.200000000000e+001 2.500000000000e+000 0.000000000000e+000
          2.200000000000e+001 5.000000000000e+000 0.000000000000e+000
          2.200000000000e+001 7.500000000000e+000 0.000000000000e+000
          2.200000000000e+001 1.000000000000e+001 0.000000000000e+000
          2.200000000000e+001 1.250000000000e+001 0.000000000000e+000
          2.200000000000e+001 1.500000000000e+001 0.000000000000e+000
          2.200000000000e+001 1.750000000000e+001 0.000000000000e+000
          2.200000000000e+001 2.000000000000e+001 0.000000000000e+000
          2.400000000000e+001 0.000000000000e+000 0.000000000000e+000
          2.400000000000e+001 2.500000000000e+000 0.000000000000e+000
          2.400000000000e+001 5.000000000000e+000 0.000000000000e+000
          2.400000000000e+001 7.500000000000e+000 0.000000000000e+000
          2.400000000000e+001 1.000000000000e+001 0.000000000000e+000
          2.400000000000e+001 1.250000000000e+001 0.000000000000e+000
          2.400000000000e+001 1.500000000000e+001 0.000000000000e+000
          2.400000000000e+001 1.750000000000e+001 0.000000000000e+000
          2.400000000000e+001 2.000000000000e+001 0.000000000000e+000
          2.600000000000e+001 0.000000000000e+000 0.000000000000e+000
          2.600000000000e+001 2.500000000000e+000 0.000000000000e+000
          2.600000000000e+001 5.000000000000e+000 0.000000000000e+000
          2.600000000000e+001 7.500000000000e+000 0.000000000000e+000
          2.600000000000e+001 1.000000000000e+001 0.000000000000e+000
          2.600000000000e+001 1.250000000000e+001 0.000000000000e+000
          2.600000000000e+001 1.500000000000e+001 0.000000000000e+000
          2.600000000000e+001 1.750000000000e+001 0.000000000000e+000
          2.600000000000e+001 2.000000000000e+001 0.000000000000e+000
          2.800000000000e+001 0.000000000000e+000 0.000000000000e+000
          2.800000000000e+001 2.500000000000e+000 0.000000000000e+000
          2.800000000000e+001 5.000000000000e+000 0.000000000000e+000
          2.800000000000e+001 7.500000000000e+000 0.000000000000e+000
          2.800000000000e+001 1.000000000000e+001 0.000000000000e+000
          2.800000000000e+001 1.250000000000e+001 0.000000000000e+000
          2.800000000000e+001 1.500000000000e+001 0.000000000000e+000
          2.800000000000e+001 1.750000000000e+001 0.000000000000e+000
          2.800000000000e+001 2.000000000000e+001 0.000000000000e+000
          3.000000000000e+001 0.000000000000e+000 0.000000000000e+000
          3.000000000000e+001 2.500000000000e+000 0.000000000000e+000
          3.000000000000e+001 5.000000000000e+000 0.000000000000e+000
          3.000000000000e+001 7.500000000000e+000 0.000000000000e+000
[...]
      <PointData Scalars="LIQUID_PRESSURE">
        <DataArray type="Float64" Name="LIQUID_PRESSURE" format="ascii">
          1.009893730225e+006 1.009904981647e+006 1.009904981656e+006 1.009893730170e+006 1.009904981673e+006 1.009893730115e+006 1.009904981640e+006 1.009893730181e+006 1.009904981658e+006 1.009893730168e+006 1.009904981694e+006 1.009893730083e+006 1.009904981692e+006 1.009893730094e+006 1.009904981706e+006 1.009893730069e+006 1.009904981728e+006 1.009893730008e+006 1.009901879999e+006 1.009901880026e+006 1.009901880032e+006 1.009901880008e+006 1.009901880011e+006 1.009901880036e+006 1.009901880017e+006 1.009901880029e+006 1.009901880048e+006 1.009868714620e+006 1.009868714632e+006 1.009868714635e+006 1.009868714619e+006 1.009868714623e+006 1.009868714634e+006 1.009868714627e+006 1.009868714619e+006 1.009868714624e+006 1.009881705274e+006 1.009881705281e+006 1.009881705278e+006 1.009881705270e+006 1.009881705267e+006 1.009881705276e+006 1.009881705265e+006 1.009881705262e+006 1.009881705269e+006 1.009851130109e+006 1.009851130114e+006 1.009851130110e+006 1.009851130108e+006 1.009851130103e+006 1.009851130108e+006 1.009851130097e+006 1.009851130102e+006 1.009851130112e+006 1.009819026494e+006 1.009819026492e+006 1.009819026497e+006 1.009819026496e+006 1.009819026494e+006 1.009819026490e+006 1.009819026485e+006 1.009819026492e+006 1.009819026494e+006 1.009818904351e+006 1.009818904347e+006 1.009818904351e+006 1.009818904354e+006 1.009818904347e+006 1.009818904343e+006 1.009818904344e+006 1.009818904343e+006 1.009818904350e+006 1.009763255261e+006 1.009763255252e+006 1.009763255262e+006 1.009763255261e+006 1.009763255251e+006 1.009763255250e+006 1.009763255256e+006 1.009763255257e+006 1.009763255252e+006 1.009745454653e+006 1.009745454648e+006 1.009745454654e+006 1.009745454652e+006 1.009745454647e+006 1.009745454644e+006 1.009745454653e+006 1.009745454649e+006 1.009745454648e+006 1.009708071342e+006 1.009708071353e+006 1.009708071350e+006 1.009708071349e+006 1.009708071347e+006 1.009708071346e+006 1.009708071353e+006 1.009708071353e+006 1.009708071347e+006 1.009657246426e+006 1.009657246429e+006 1.009657246426e+006 1.009657246425e+006 1.009657246420e+006 1.009657246412e+006 1.009657246432e+006 1.009657246432e+006 1.009657246424e+006 1.009629005462e+006 1.009629005456e+006 1.009629005464e+006 1.009629005455e+006 1.009629005453e+006 1.009629005456e+006 1.009629005454e+006 1.009629005456e+006 1.009629005464e+006 1.009563710533e+006 1.009563710524e+006 1.009563710517e+006 1.009563710518e+006 1.009563710517e+006 1.009563710514e+006 1.009563710519e+006 1.009563710515e+006 1.009563710519e+006 1.009527679308e+006 1.009527679302e+006 1.009527679293e+006 1.009527679300e+006 1.009527679297e+006 1.009527679300e+006 1.009527679300e+006 1.009527679301e+006 1.009527679300e+006 1.009463780118e+006 1.009463780120e+006 1.009463780119e+006 1.009463780116e+006 1.009463780118e+006 1.009463780111e+006 1.009463780115e+006 1.009463780115e+006 1.009463780118e+006 1.009406015863e+006 1.009406015863e+006 1.009406015858e+006 1.009406015857e+006 1.009406015861e+006 1.009406015855e+006 1.009406015860e+006 1.009406015859e+006 1.009406015860e+006 1.009353985154e+006 1.009353985167e+006 1.009353985158e+006 1.009353985161e+006 1.009353985165e+006 1.009353985166e+006 1.009353985169e+006 1.009353985160e+006 1.009353985163e+006 1.009270667036e+006 1.009270667033e+006 1.009270667032e+006 1.009270667024e+006 1.009270667031e+006 1.009270667038e+006 1.009270667031e+006 1.009270667034e+006 1.009270667035e+006 1.009222071524e+006 1.009222071514e+006 1.009222071515e+006 1.009222071523e+006 1.009222071518e+006 1.009222071513e+006 1.009222071515e+006 1.009222071516e+006 1.009222071521e+006 1.009135992982e+006 1.009135992975e+006 1.009135992976e+006 1.009135992989e+006 1.009135992979e+006 1.009135992980e+006 1.009135992980e+006 1.009135992974e+006 1.009135992984e+006 1.009067485101e+006 1.009067485107e+006 1.009067485107e+006 1.009067485105e+006 1.009067485105e+006 1.009067485105e+006 1.009067485102e+006 1.009067485103e+006 1.009067485100e+006 1.008988594189e+006 1.008988594190e+006 1.008988594195e+006 1.008988594192e+006 1.008988594195e+006 1.008988594198e+006 1.008988594192e+006 1.008988594193e+006 1.008988594193e+006 1.008903478513e+006 1.008903478505e+006 1.008903478509e+006 1.008903478508e+006 1.008903478511e+006 1.008903478512e+006 1.008903478513e+006 1.008903478512e+006 1.008903478509e+006 1.008827762170e+006 1.008827762170e+006 1.008827762166e+006 1.008827762168e+006 1.008827762169e+006 1.008827762168e+006 1.008827762173e+006 1.008827762171e+006 1.008827762166e+006 1.008728255929e+006 1.008728255942e+006 1.008728255936e+006 1.008728255936e+006 1.008728255935e+006 1.008728255933e+006 1.008728255934e+006 1.008728255935e+006 1.008728255930e+006 1.008648294788e+006 1.008648294782e+006 1.008648294786e+006 1.008648294783e+006 1.008648294781e+006 1.008648294779e+006 1.008648294781e+006 1.008648294787e+006 1.008648294779e+006 1.008551322828e+006 1.008551322824e+006 1.008551322822e+006 1.008551322826e+006 1.008551322821e+006 1.008551322814e+006 1.008551322821e+006 1.008551322819e+006 1.008551322828e+006 1.008449392529e+006 1.008449392523e+006 1.008449392517e+006 1.008449392516e+006 1.008449392520e+006 1.008449392518e+006 1.008449392519e+006 1.008449392522e+006 1.008449392527e+006 1.008363748296e+006 1.008363748296e+006 1.008363748291e+006 1.008363748293e+006 1.008363748293e+006 1.008363748293e+006 1.008363748292e+006 1.008363748290e+006 1.008363748291e+006 1.008248049403e+006 1.008248049400e+006 1.008248049400e+006 1.008248049406e+006 1.008248049404e+006 1.008248049400e+006 1.008248049402e+006 1.008248049401e+006 1.008248049397e+006 1.008150893160e+006 1.008150893165e+006 1.008150893168e+006 1.008150893174e+006 1.008150893173e+006 1.008150893168e+006 1.008150893172e+006 1.008150893170e+006 1.008150893170e+006 1.008047806546e+006 1.008047806545e+006 1.008047806546e+006 1.008047806550e+006 1.008047806553e+006 1.008047806550e+006 1.008047806548e+006 1.008047806541e+006 1.008047806546e+006 1.007926072807e+006 1.007926072802e+006 1.007926072806e+006 1.007926072806e+006 1.007926072808e+006 1.007926072803e+006 1.007926072802e+006 1.007926072800e+006 1.007926072795e+006 1.007827951644e+006 1.007827951647e+006 1.007827951646e+006 1.007827951649e+006 1.007827951650e+006 1.007827951644e+006 1.007827951649e+006 1.007827951640e+006 1.007827951642e+006 1.007706671100e+006 1.007706671100e+006 1.007706671099e+006 1.007706671098e+006 1.007706671102e+006 1.007706671100e+006 1.007706671098e+006 1.007706671097e+006 1.007706671093e+006 1.007588248719e+006 1.007588248721e+006 1.007588248720e+006 1.007588248719e+006 1.007588248722e+006 1.007588248718e+006 1.007588248720e+006 1.007588248717e+006 1.007588248717e+006 1.007477487568e+006 1.007477487572e+006 1.007477487573e+006 1.007477487573e+006 1.007477487571e+006 1.007477487571e+006 1.007477487573e+006 1.007477487570e+006 1.007477487563e+006 1.007349865183e+006 1.007349865177e+006 1.007349865173e+006 1.007349865176e+006 1.007349865176e+006 1.007349865177e+006 1.007349865173e+006 1.007349865171e+006 1.007349865172e+006 1.007226189327e+006 1.007226189323e+006 1.007226189323e+006 1.007226189319e+006 1.007226189323e+006 1.007226189321e+006 1.007226189320e+006 1.007226189318e+006 1.007226189323e+006 1.007111108903e+006 1.007111108903e+006 1.007111108899e+006 1.007111108901e+006 1.007111108898e+006 1.007111108898e+006 1.007111108899e+006 1.007111108897e+006 1.007111108898e+006 1.006973915794e+006 1.006973915797e+006 1.006973915794e+006 1.006973915795e+006 1.006973915795e+006 1.006973915792e+006 1.006973915791e+006 1.006973915792e+006 1.006973915791e+006 1.006849523538e+006 1.006849523539e+006 1.006849523540e+006 1.006849523541e+006 1.006849523543e+006 1.006849523534e+006 1.006849523543e+006 1.006849523536e+006 1.006849523538e+006 1.006720286867e+006 1.006720286872e+006 1.006720286870e+006 1.006720286868e+006 1.006720286872e+006 1.006720286868e+006 1.006720286866e+006 1.006720286874e+006 1.006720286872e+006 1.006584427906e+006 1.006584427912e+006 1.006584427910e+006 1.006584427909e+006 1.006584427908e+006 1.006584427907e+006 1.006584427906e+006 1.006584427907e+006 1.006584427906e+006 1.006459700844e+006 1.006459700848e+006 1.006459700846e+006 1.006459700849e+006 1.006459700844e+006 1.006459700843e+006 1.006459700842e+006 1.006459700842e+006 1.006459700843e+006 1.006319194788e+006 1.006319194788e+006 1.006319194792e+006 1.006319194791e+006 1.006319194785e+006 1.006319194788e+006 1.006319194790e+006 1.006319194787e+006 1.006319194790e+006 1.006174526330e+006 1.006174526330e+006 1.006174526330e+006 1.006174526330e+006 1.006174526331e+006 1.006174526330e+006 1.006174526330e+006 1.006174526329e+006 1.006174526327e+006 1.006053464734e+006 1.006053464737e+006 1.006053464737e+006 1.006053464735e+006 1.006053464737e+006 1.006053464736e+006 1.006053464738e+006 1.006053464737e+006 1.006053464735e+006 1.005904491326e+006 1.005904491328e+006 1.005904491329e+006 1.005904491330e+006 1.005904491329e+006 1.005904491328e+006 1.005904491328e+006 1.005904491328e+006 1.005904491331e+006 1.005766842962e+006 1.005766842959e+006 1.005766842961e+006 1.005766842960e+006 1.005766842959e+006 1.005766842961e+006 1.005766842962e+006 1.005766842961e+006 1.005766842959e+006 1.005628369880e+006 1.005628369876e+006 1.005628369875e+006 1.005628369874e+006 1.005628369871e+006 1.005628369876e+006 1.005628369876e+006 1.005628369876e+006 1.005628369874e+006 1.005480863652e+006 1.005480863655e+006 1.005480863656e+006 1.005480863652e+006 1.005480863648e+006 1.005480863654e+006 1.005480863652e+006 1.005480863652e+006 1.005480863652e+006 1.005341025433e+006 1.005341025438e+006 1.005341025439e+006 1.005341025438e+006 1.005341025438e+006 1.005341025436e+006 1.005341025437e+006 1.005341025437e+006 1.005341025436e+006 1.005201897298e+006 1.005201897298e+006 1.005201897297e+006 1.005201897299e+006 1.005201897298e+006 1.005201897296e+006 1.005201897297e+006 1.005201897299e+006 1.005201897296e+006 1.005052964908e+006 1.005052964910e+006 1.005052964912e+006 1.005052964909e+006 1.005052964910e+006 1.005052964906e+006 1.005052964911e+006 1.005052964910e+006 1.005052964910e+006 1.004905900420e+006 1.004905900421e+006 1.004905900421e+006 1.004905900420e+006 1.004905900420e+006 1.004905900421e+006 1.004905900419e+006 1.004905900421e+006 1.004905900421e+006 1.004765253067e+006 1.004765253069e+006 1.004765253070e+006 1.004765253069e+006 1.004765253070e+006 1.004765253070e+006 1.004765253069e+006 1.004765253069e+006 1.004765253068e+006 1.004632543535e+006 1.004632543537e+006 1.004632543537e+006 1.004632543537e+006 1.004632543539e+006 1.004632543538e+006 1.004632543540e+006 1.004632543537e+006 1.004632543537e+006 1.004452718055e+006 1.004452718055e+006 1.004452718055e+006 1.004452718052e+006 1.004452718051e+006 1.004452718051e+006 1.004452718051e+006 1.004452718051e+006 1.004452718052e+006 1.004329014653e+006 1.004329014654e+006 1.004329014653e+006 1.004329014656e+006 1.004329014660e+006 1.004329014661e+006 1.004329014659e+006 1.004329014662e+006 1.004329014660e+006 1.004197360250e+006 1.004197360251e+006 1.004197360250e+006 1.004197360244e+006 1.004197360241e+006 1.004197360240e+006 1.004197360237e+006 1.004197360240e+006 1.004197360236e+006 1.004039831185e+006 1.004039831187e+006 1.004039831188e+006 1.004039831196e+006 1.004039831202e+006 1.004039831208e+006 1.004039831207e+006 1.004039831211e+006 1.004039831208e+006 1.003845183077e+006 1.003845183074e+006 1.003845183072e+006 1.003845183054e+006 1.003845183050e+006 1.003845183047e+006 1.003845183047e+006 1.003845183044e+006 1.003845183041e+006 1.003815432604e+006 1.003815432605e+006 1.003815432597e+006 1.003815432620e+006 1.003815432628e+006 1.003815432629e+006 1.003815432632e+006 1.003815432631e+006 1.003815432638e+006 1.003522401722e+006 1.003522401719e+006 1.003522401721e+006 1.003522401700e+006 1.003522401700e+006 1.003522401697e+006 1.003522401691e+006 1.003522401691e+006 1.003522401693e+006 1.003521716731e+006 1.003521716735e+006 1.003521716733e+006 1.003521716734e+006 1.003521716739e+006 1.003521716742e+006 1.003521716742e+006 1.003521716741e+006 1.003521716744e+006 1.003280563309e+006 1.003280563310e+006 1.003280563305e+006 1.003280563314e+006 1.003280563309e+006 1.003280563311e+006 1.003280563311e+006 1.003280563313e+006 1.003280563311e+006 1.003163484363e+006 1.003163484365e+006 1.003163484361e+006 1.003163484365e+006 1.003163484359e+006 1.003163484361e+006 1.003163484360e+006 1.003163484360e+006 1.003163484361e+006 1.003039594974e+006 1.003039594976e+006 1.003039594975e+006 1.003039594976e+006 1.003039594974e+006 1.003039594974e+006 1.003039594974e+006 1.003039594975e+006 1.003039594974e+006 1.002883200770e+006 1.002883200767e+006 1.002883200768e+006 1.002883200769e+006 1.002883200767e+006 1.002883200768e+006 1.002883200769e+006 1.002883200768e+006 1.002883200769e+006 1.002751208946e+006 1.002751208946e+006 1.002751208945e+006 1.002751208946e+006 1.002751208947e+006 1.002751208948e+006 1.002751208947e+006 1.002751208947e+006 1.002751208946e+006 1.002604888359e+006 1.002604888358e+006 1.002604888358e+006 1.002604888361e+006 1.002604888360e+006 1.002604888359e+006 1.002604888360e+006 1.002604888358e+006 1.002604888358e+006 1.002464905741e+006 1.002464905741e+006 1.002464905742e+006 1.002464905741e+006 1.002464905742e+006 1.002464905742e+006 1.002464905741e+006 1.002464905741e+006 1.002464905740e+006 1.002354818640e+006 1.002354818640e+006 1.002354818641e+006 1.002354818641e+006 1.002354818641e+006 1.002354818641e+006 1.002354818641e+006 1.002354818642e+006 1.002354818640e+006 1.002200273321e+006 1.002200273320e+006 1.002200273321e+006 1.002200273322e+006 1.002200273321e+006 1.002200273322e+006 1.002200273321e+006 1.002200273321e+006 1.002200273325e+006 1.002078587011e+006 1.002078587012e+006 1.002078587012e+006 1.002078587011e+006 1.002078587011e+006 1.002078587011e+006 1.002078587012e+006 1.002078587012e+006 1.002078587011e+006 1.001961887170e+006 1.001961887167e+006 1.001961887170e+006 1.001961887169e+006 1.001961887170e+006 1.001961887170e+006 1.001961887169e+006 1.001961887171e+006 1.001961887171e+006 1.001823128211e+006 1.001823128212e+006 1.001823128211e+006 1.001823128212e+006 1.001823128212e+006 1.001823128212e+006 1.001823128212e+006 1.001823128213e+006 1.001823128212e+006 1.001724332955e+006 1.001724332956e+006 1.001724332957e+006 1.001724332957e+006 1.001724332957e+006 1.001724332957e+006 1.001724332957e+006 1.001724332957e+006 1.001724332958e+006 1.001617059305e+006 1.001617059306e+006 1.001617059307e+006 1.001617059306e+006 1.001617059306e+006 1.001617059307e+006 1.001617059306e+006 1.001617059306e+006 1.001617059305e+006 1.001533332268e+006 1.001533332268e+006 1.001533332269e+006 1.001533332268e+006 1.001533332269e+006 1.001533332269e+006 1.001533332269e+006 1.001533332268e+006 1.001533332268e+006 1.001452628203e+006 1.001452628203e+006 1.001452628203e+006 1.001452628203e+006 1.001452628203e+006 1.001452628203e+006 1.001452628203e+006 1.001452628202e+006 1.001452628202e+006 1.001371924369e+006 1.001371924369e+006 1.001371924369e+006 1.001371924370e+006 1.001371924370e+006 1.001371924370e+006 1.001371924369e+006 1.001371924369e+006 1.001371924369e+006 1.001291220988e+006 1.001291220988e+006 1.001291220988e+006 1.001291220988e+006 1.001291220988e+006 1.001291220988e+006 1.001291220988e+006 1.001291220988e+006 1.001291220988e+006 1.001210517980e+006 1.001210517980e+006 1.001210517979e+006 1.001210517979e+006 1.001210517979e+006 1.001210517979e+006 1.001210517979e+006 1.001210517979e+006 1.001210517979e+006 1.001129815324e+006 1.001129815324e+006 1.001129815323e+006 1.001129815323e+006 1.001129815323e+006 1.001129815323e+006 1.001129815323e+006 1.001129815323e+006 1.001129815323e+006 1.001049112996e+006 1.001049112996e+006 1.001049112996e+006 1.001049112996e+006 1.001049112996e+006 1.001049112996e+006 1.001049112996e+006 1.001049112996e+006 1.001049112996e+006 1.000968410970e+006 1.000968410970e+006 1.000968410970e+006 1.000968410970e+006 1.000968410970e+006 1.000968410970e+006 1.000968410970e+006 1.000968410970e+006 1.000968410970e+006 1.000887709217e+006 1.000887709217e+006 1.000887709217e+006 1.000887709217e+006 1.000887709217e+006 1.000887709217e+006 1.000887709217e+006 1.000887709217e+006 1.000887709217e+006 1.000807007710e+006 1.000807007710e+006 1.000807007710e+006 1.000807007710e+006 1.000807007710e+006 1.000807007710e+006 1.000807007710e+006 1.000807007710e+006 1.000807007710e+006 1.000726306420e+006 1.000726306420e+006 1.000726306420e+006 1.000726306420e+006 1.000726306420e+006 1.000726306420e+006 1.000726306420e+006 1.000726306420e+006 1.000726306420e+006 1.000645605320e+006 1.000645605320e+006 1.000645605320e+006 1.000645605320e+006 1.000645605320e+006 1.000645605320e+006 1.000645605320e+006 1.000645605320e+006 1.000645605320e+006 1.000564904382e+006 1.000564904382e+006 1.000564904382e+006 1.000564904382e+006 1.000564904382e+006 1.000564904382e+006 1.000564904382e+006 1.000564904382e+006 1.000564904382e+006 1.000484203578e+006 1.000484203578e+006 1.000484203578e+006 1.000484203578e+006 1.000484203578e+006 1.000484203579e+006 1.000484203579e+006 1.000484203579e+006 1.000484203579e+006 1.000403502881e+006 1.000403502881e+006 1.000403502881e+006 1.000403502881e+006 1.000403502881e+006 1.000403502881e+006 1.000403502881e+006 1.000403502881e+006 1.000403502881e+006 1.000322802261e+006 1.000322802261e+006 1.000322802261e+006 1.000322802261e+006 1.000322802261e+006 1.000322802261e+006 1.000322802261e+006 1.000322802261e+006 1.000322802261e+006 1.000242101691e+006 1.000242101691e+006 1.000242101691e+006 1.000242101691e+006 1.000242101691e+006 1.000242101691e+006 1.000242101691e+006 1.000242101691e+006 1.000242101691e+006 1.000161401143e+006 1.000161401143e+006 1.000161401143e+006 1.000161401143e+006 1.000161401143e+006 1.000161401143e+006 1.000161401143e+006 1.000161401143e+006 1.000161401143e+006 1.000080700589e+006 1.000080700589e+006 1.000080700589e+006 1.000080700589e+006 1.000080700589e+006 1.000080700589e+006 1.000080700589e+006 1.000080700589e+006 1.000080700589e+006 1.000000000000e+006 1.000000000000e+006 1.000000000000e+006 1.000000000000e+006 1.000000000000e+006 1.000000000000e+006 1.000000000000e+006 1.000000000000e+006 1.000000000000e+006 
        </DataArray>
        <DataArray type="Float64" Name="MOLAR_FRACTION" format="ascii">