<?xml version="1.0"?>
<VTKFile type="UnstructuredGrid" version="0.1" byte_order="LittleEndian">
  <UnstructuredGrid>
    <Piece NumberOfPoints="909" NumberOfCells="800">
      <Points>
        <DataArray type="Float64" NumberOfComponents="3" format="ascii">
          0.000000000000e+000 0.000000000000e+000 0.000000000000e+000
          2.000000000000e+000 0.000000000000e+000 0.000000000000e+000
          2.000000000000e+000 2.500000000000e+000 0.000000000000e+000
          0.000000000000e+000 2.500000000000e+000 0.000000000000e+000
          2.000000000000e+000 5.000000000000e+000 0.000000000000e+000
          0.000000000000e+000 5.000000000000e+000 0.000000000000e+000
          2.000000000000e+000 7.500000000000e+000 0.000000000000e+000
          0.000000000000e+000 7.500000000000e+000 0.000000000000e+000
          2.000000000000e+000 1.000000000000e+001 0.000000000000e+000
          0.000000000000e+000 1.000000000000e+001 0.000000000000e+000
          2.000000000000e+000 1.250000000000e+001 0.000000000000e+000
          0.000000000000e+000 1.250000000000e+001 0.000000000000e+000
          2.000000000000e+000 1.500000000000e+001 0.000000000000e+000
          0.000000000000e+000 1.500000000000e+001 0.000000000000e+000
          2.000000000000e+000 1.750000000000e+001 0.000000000000e+000
          0.000000000000e+000 1.750000000000e+001 0.000000000000e+000
          2.000000000000e+000 2.000000000000e+001 0.000000000000e+000
          0.000000000000e+000 2.000000000000e+001 0.000000000000e+000
          4.000000000000e+000 0.000000000000e+000 0.000000000000e+000
          4.000000000000e+000 2.500000000000e+000 0.000000000000e+000
          4.000000000000e+000 5.000000000000e+000 0.000000000000e+000
          4.000000000000e+000 7.500000000000e+000 0.000000000000e+000
          4.000000000000e+000 1.000000000000e+001 0.000000000000e+000
          4.000000000000e+000 1.250000000000e+001 0.000000000000e+000
          4.000000000000e+000 1.500000000000e+001 0.000000000000e+000
          4.000000000000e+000 1.750000000000e+001 0.000000000000e+000
          4.000000000000e+000 2.000000000000e+001 0.000000000000e+000
          6.000000000000e+000 0.000000000000e+000 0.000000000000e+000
          6.000000000000e+000 2.500000000000e+000 0.000000000000e+000
          6.000000000000e+000 5.000000000000e+000 0.000000000000e+000
          6.000000000000e+000 7.500000000000e+000 0.000000000000e+000
          6.000000000000e+000 1.000000000000e+001 0.000000000000e+000
          6.000000000000e+000 1.250000000000e+001 0.000000000000e+000
          6.000000000000e+000 1.500000000000e+001 0.000000000000e+000
          6.000000000000e+000 1.750000000000e+001 0.000000000000e+000
          6.000000000000e+000 2.000000000000e+001 0.000000000000e+000
          8.000000000000e+000 0.000000000000e+000 0.000000000000e+000
          8.000000000000e+000 2.500000000000e+000 0.000000000000e+000
          8.000000000000e+000 5.000000000000e+000 0.000000000000e+000
          8.000000000000e+000 7.500000000000e+000 0.000000000000e+000
          8.000000000000e+000 1.000000000000e+001 0.000000000000e+000
          8.000000000000e+000 1.250000000000e+001 0.000000000000e+000
          8.000000000000e+000 1.500000000000e+001 0.000000000000e+000
          8.000000000000e+000 1.750000000000e+001 0.000000000000e+000
          8.000000000000e+000 2.000000000000e+001 0.000000000000e+000
          1.000000000000e+001 0.000000000000e+000 0.000000000000e+000
          1.000000000000e+001 2.500000000000e+000 0.000000000000e+000
          1.000000000000e+001 5.000000000000e+000 0.000000000000e+000
          1.000000000000e+001 7.500000000000e+000 0.000000000000e+000
          1.000000000000e+001 1.000000000000e+001 0.000000000000e+000
          1.000000000000e+001 1.250000000000e+001 0.000000000000e+000
          1.000000000000e+001 1.500000000000e+001 0.000000000000e+000
          1.000000000000e+001 1.750000000000e+001 0.000000000000e+000
          1.000000000000e+001 2.000000000000e+001 0.000000000000e+000
          1.200000000000e+001 0.000000000000e+000 0.000000000000e+000
          1.200000000000e+001 2.500000000000e+000 0.000000000000e+000
          1.200000000000e+001 5.000000000000e+000 0.000000000000e+000
          1.200000000000e+001 7.500000000000e+000 0.000000000000e+000
          1.200000000000e+001 1.000000000000e+001 0.000000000000e+000
          1.200000000000e+001 1.250000000000e+001 0.000000000000e+000
          1.200000000000e+001 1.500000000000e+001 0.000000000000e+000
          1.200000000000e+001 1.750000000000e+001 0.000000000000e+000
          1.200000000000e+001 2.000000000000e+001 0.000000000000e+000
          1.400000000000e+001 0.000000000000e+000 0.000000000000e+000
          1.400000000000e+001 2.500000000000e+000 0.000000000000e+000
          1.400000000000e+001 5.000000000000e+000 0.000000000000e+000
          1.400000000000e+001 7.500000000000e+000 0.000000000000e+000
          1.400000000000e+001 1.000000000000e+001 0.000000000000e+000
          1.400000000000e+001 1.250000000000e+001 0.000000000000e+000
          1.400000000000e+001 1.500000000000e+001 0.000000000000e+000
          1.400000000000e+001 1.750000000000e+001 0.000000000000e+000
          1.400000000000e+001 2.000000000000e+001 0.000000000000e+000
          1.600000000000e+001 0.000000000000e+000 0.000000000000e+000
          1.600000000000e+001 2.500000000000e+000 0.000000000000e+000
          1.600000000000e+001 5.000000000000e+000 0.000000000000e+000
          1.600000000000e+001 7.500000000000e+000 0.000000000000e+000
          1.600000000000e+001 1.000000000000e+001 0.000000000000e+000
          1.600000000000e+001 1.250000000000e+001 0.000000000000e+000
          1.600000000000e+001 1.500000000000e+001 0.000000000000e+000
          1.600000000000e+001 1.750000000000e+001 0.000000000000e+000
          1.600000000000e+001 2.000000000000e+001 0.000000000000e+000
          1.800000000000e+001 0.000000000000e+000 0.000000000000e+000
          1.800000000000e+001 2.500000000000e+000 0.000000000000e+000
          1.800000000000e+001 5.000000000000e+000 0.000000000000e+000
          1.800000000000e+001 7.500000000000e+000 0.000000000000e+000
          1.800000000000e+001 1.000000000000e+001 0.000000000000e+000
          1.800000000000e+001 1.250000000000e+001 0.000000000000e+000
          1.800000000000e+001 1.500000000000e+001 0.000000000000e+000
          1.800000000000e+001 1.750000000000e+001 0.000000000000e+000
          1.800000000000e+001 2.000000000000e+001 0.000000000000e+000
          2.000000000000e+001 0.000000000000e+000 0.000000000000e+000
          2.000000000000e+001 2.500000000000e+000 0.000000000000e+000
          2.000000000000e+001 5.000000000000e+000 0.000000000000e+000
          2.000000000000e+001 7.500000000000e+000 0.000000000000e+000
          2.000000000000e+001 1.000000000000e+001 0.000000000000e+000
          2.000000000000e+001 1.250000000000e+001 0.000000000000e+000
          2.000000000000e+001 1.500000000000e+001 0.000000000000e+000
          2.000000000000e+001 1.750000000000e+001 0.000000000000e+000
          2.000000000000e+001 2.000000000000e+001 0.000000000000e+000
          2.200000000000e+001 0.000000000000e+000 0.000000000000e+000
          2.200000000000e+001 2.500000000000e+000 0.000000000000e+000
          2.200000000000e+001 5.000000000000e+000 0.000000000000e+000
          2.200000000000e+001 7.500000000000e+000 0.000000000000e+000
          2.200000000000e+001 1.000000000000e+001 0.000000000000e+000
          2.200000000000e+001 1.250000000000e+001 0.000000000000e+000
          2.200000000000e+001 1.500000000000e+001 0.000000000000e+000
          2.200000000000e+001 1.750000000000e+001 0.000000000000e+000
          2.200000000000e+001 2.000000000000e+001 0.000000000000e+000
          2.400000000000e+001 0.000000000000e+000 0.000000000000e+000
          2.400000000000e+001 2.500000000000e+000 0.000000000000e+000
          2.400000000000e+001 5.000000000000e+000 0.000000000000e+000
          2.400000000000e+001 7.500000000000e+000 0.000000000000e+000
          2.400000000000e+001 1.000000000000e+001 0.000000000000e+000
          2.400000000000e+001 1.250000000000e+001 0.000000000000e+000
          2.400000000000e+001 1.500000000000e+001 0.000000000000e+000
          2.400000000000e+001 1.750000000000e+001 0.000000000000e+000
          2.400000000000e+001 2.000000000000e+001 0.000000000000e+000
          2.600000000000e+001 0.000000000000e+000 0.000000000000e+000
          2.600000000000e+001 2.500000000000e+000 0.000000000000e+000
          2.600000000000e+001 5.000000000000e+000 0.000000000000e+000
          2.600000000000e+001 7.500000000000e+000 0.000000000000e+000
          2.600000000000e+001 1.000000000000e+001 0.000000000000e+000
          2.600000000000e+001 1.250000000000e+001 0.000000000000e+000
          2.600000000000e+001 1.500000000000e+001 0.000000000000e+000
          2.600000000000e+001 1.750000000000e+001 0.000000000000e+000
          2.600000000000e+001 2.000000000000e+001 0.000000000000e+000
          2.800000000000e+001 0.000000000000e+000 0.000000000000e+000
          2.800000000000e+001 2.500000000000e+000 0.000000000000e+000
          2.800000000000e+001 5.000000000000e+000 0.000000000000e+000
          2.800000000000e+001 7.500000000000e+000 0.000000000000e+000
          2.800000000000e+001 1.000000000000e+001 0.000000000000e+000
          2.800000000000e+001 1.250000000000e+001 0.000000000000e+000
          2.800000000000e+001 1.500000000000e+001 0.000000000000e+000
          2.800000000000e+001 1.750000000000e+001 0.000000000000e+000
          2.800000000000e+001 2.000000000000e+001 0.000000000000e+000
          3.000000000000e+001 0.000000000000e+000 0.000000000000e+000
          3.000000000000e+001 2.500000000000e+000 0.000000000000e+000
          3.000000000000e+001 5.000000000000e+000 0.000000000000e+000
          3.000000000000e+001 7.500000000000e+000 0.000000000000e+000
[...]
      <PointData Scalars="LIQUID_PRESSURE">
        <DataArray type="Float64" Name="LIQUID_PRESSURE" format="ascii">
          1.041162306935e+006 1.041171805072e+006 1.041171805086e+006 1.041162306854e+006 1.041171805111e+006 1.041162306799e+006 1.041171805077e+006 1.041162306885e+006 1.041171805096e+006 1.041162306864e+006 1.041171805137e+006 1.041162306754e+006 1.041171805126e+006 1.041162306751e+006 1.041171805143e+006 1.041162306713e+006 1.041171805172e+006 1.041162306647e+006 1.041149279098e+006 1.041149279132e+006 1.041149279150e+006 1.041149279110e+006 1.041149279117e+006 1.041149279160e+006 1.041149279137e+006 1.041149279153e+006 1.041149279184e+006 1.041085160255e+006 1.041085160278e+006 1.041085160289e+006 1.041085160262e+006 1.041085160268e+006 1.041085160287e+006 1.041085160268e+006 1.041085160270e+006 1.041085160283e+006 1.041062703550e+006 1.041062703561e+006 1.041062703573e+006 1.041062703551e+006 1.041062703552e+006 1.041062703561e+006 1.041062703548e+006 1.041062703543e+006 1.041062703553e+006 1.040976050949e+006 1.040976050959e+006 1.040976050961e+006 1.040976050955e+006 1.040976050949e+006 1.040976050963e+006 1.040976050953e+006 1.040976050949e+006 1.040976050956e+006 1.040880641312e+006 1.040880641317e+006 1.040880641320e+006 1.040880641315e+006 1.040880641315e+006 1.040880641319e+006 1.040880641317e+006 1.040880641317e+006 1.040880641318e+006 1.040808556239e+006 1.040808556240e+006 1.040808556243e+006 1.040808556238e+006 1.040808556242e+006 1.040808556241e+006 1.040808556241e+006 1.040808556240e+006 1.040808556241e+006 1.040663111756e+006 1.040663111754e+006 1.040663111756e+006 1.040663111754e+006 1.040663111755e+006 1.040663111757e+006 1.040663111756e+006 1.040663111759e+006 1.040663111754e+006 1.040551134046e+006 1.040551134045e+006 1.040551134046e+006 1.040551134046e+006 1.040551134046e+006 1.040551134045e+006 1.040551134045e+006 1.040551134045e+006 1.040551134046e+006 1.040404463945e+006 1.040404463948e+006 1.040404463948e+006 1.040404463947e+006 1.040404463948e+006 1.040404463947e+006 1.040404463947e+006 1.040404463947e+006 1.040404463947e+006 1.040233081353e+006 1.040233081355e+006 1.040233081353e+006 1.040233081355e+006 1.040233081352e+006 1.040233081353e+006 1.040233081357e+006 1.040233081354e+006 1.040233081356e+006 1.040074919058e+006 1.040074919057e+006 1.040074919058e+006 1.040074919058e+006 1.040074919057e+006 1.040074919059e+006 1.040074919057e+006 1.040074919058e+006 1.040074919058e+006 1.039866129799e+006 1.039866129798e+006 1.039866129800e+006 1.039866129799e+006 1.039866129800e+006 1.039866129799e+006 1.039866129798e+006 1.039866129798e+006 1.039866129798e+006 1.039679947927e+006 1.039679947930e+006 1.039679947927e+006 1.039679947930e+006 1.039679947928e+006 1.039679947929e+006 1.039679947930e+006 1.039679947930e+006 1.039679947928e+006 1.039451410040e+006 1.039451410039e+006 1.039451410041e+006 1.039451410038e+006 1.039451410041e+006 1.039451410038e+006 1.039451410040e+006 1.039451410039e+006 1.039451410039e+006 1.039221179873e+006 1.039221179871e+006 1.039221179871e+006 1.039221179872e+006 1.039221179869e+006 1.039221179872e+006 1.039221179871e+006 1.039221179872e+006 1.039221179870e+006 1.038984093773e+006 1.038984093774e+006 1.038984093773e+006 1.038984093775e+006 1.038984093774e+006 1.038984093773e+006 1.038984093774e+006 1.038984093775e+006 1.038984093774e+006 1.038703972635e+006 1.038703972635e+006 1.038703972635e+006 1.038703972634e+006 1.038703972636e+006 1.038703972636e+006 1.038703972635e+006 1.038703972634e+006 1.038703972636e+006 1.038452842192e+006 1.038452842192e+006 1.038452842192e+006 1.038452842192e+006 1.038452842192e+006 1.038452842192e+006 1.038452842192e+006 1.038452842191e+006 1.038452842193e+006 1.038149018259e+006 1.038149018258e+006 1.038149018259e+006 1.038149018258e+006 1.038149018258e+006 1.038149018259e+006 1.038149018258e+006 1.038149018258e+006 1.038149018258e+006 1.037855807817e+006 1.037855807817e+006 1.037855807818e+006 1.037855807816e+006 1.037855807817e+006 1.037855807816e+006 1.037855807816e+006 1.037855807817e+006 1.037855807816e+006 1.037541209870e+006 1.037541209869e+006 1.037541209869e+006 1.037541209871e+006 1.037541209870e+006 1.037541209870e+006 1.037541209870e+006 1.037541209870e+006 1.037541209870e+006 1.037211330229e+006 1.037211330230e+006 1.037211330229e+006 1.037211330229e+006 1.037211330229e+006 1.037211330229e+006 1.037211330229e+006 1.037211330229e+006 1.037211330229e+006 1.036880715171e+006 1.036880715170e+006 1.036880715171e+006 1.036880715170e+006 1.036880715171e+006 1.036880715170e+006 1.036880715171e+006 1.036880715170e+006 1.036880715170e+006 1.036514649997e+006 1.036514649997e+006 1.036514649997e+006 1.036514649998e+006 1.036514649997e+006 1.036514649998e+006 1.036514649997e+006 1.036514649997e+006 1.036514649997e+006 1.036162591463e+006 1.036162591463e+006 1.036162591463e+006 1.036162591463e+006 1.036162591463e+006 1.036162591463e+006 1.036162591463e+006 1.036162591463e+006 1.036162591462e+006 1.035780527558e+006 1.035780527559e+006 1.035780527559e+006 1.035780527559e+006 1.035780527559e+006 1.035780527559e+006 1.035780527559e+006 1.035780527559e+006 1.035780527559e+006 1.035386675948e+006 1.035386675949e+006 1.035386675948e+006 1.035386675948e+006 1.035386675948e+006 1.035386675949e+006 1.035386675949e+006 1.035386675948e+006 1.035386675949e+006 1.035001388362e+006 1.035001388361e+006 1.035001388362e+006 1.035001388362e+006 1.035001388362e+006 1.035001388361e+006 1.035001388362e+006 1.035001388361e+006 1.035001388361e+006 1.034572607537e+006 1.034572607538e+006 1.034572607538e+006 1.034572607537e+006 1.034572607538e+006 1.034572607538e+006 1.034572607538e+006 1.034572607538e+006 1.034572607538e+006 1.034159058890e+006 1.034159058890e+006 1.034159058890e+006 1.034159058890e+006 1.034159058890e+006 1.034159058890e+006 1.034159058890e+006 1.034159058890e+006 1.034159058890e+006 1.033727983277e+006 1.033727983278e+006 1.033727983278e+006 1.033727983278e+006 1.033727983278e+006 1.033727983278e+006 1.033727983277e+006 1.033727983278e+006 1.033727983277e+006 1.033269093775e+006 1.033269093775e+006 1.033269093774e+006 1.033269093775e+006 1.033269093775e+006 1.033269093775e+006 1.033269093775e+006 1.033269093775e+006 1.033269093775e+006 1.032830371705e+006 1.032830371705e+006 1.032830371705e+006 1.032830371705e+006 1.032830371705e+006 1.032830371705e+006 1.032830371705e+006 1.032830371704e+006 1.032830371705e+006 1.032355402621e+006 1.032355402621e+006 1.032355402621e+006 1.032355402621e+006 1.032355402621e+006 1.032355402621e+006 1.032355402621e+006 1.032355402621e+006 1.032355402621e+006 1.031877886394e+006 1.031877886394e+006 1.031877886394e+006 1.031877886394e+006 1.031877886394e+006 1.031877886394e+006 1.031877886394e+006 1.031877886394e+006 1.031877886394e+006 1.031401883665e+006 1.031401883665e+006 1.031401883665e+006 1.031401883665e+006 1.031401883665e+006 1.031401883665e+006 1.031401883665e+006 1.031401883665e+006 1.031401883665e+006 1.030898134176e+006 1.030898134176e+006 1.030898134176e+006 1.030898134176e+006 1.030898134176e+006 1.030898134176e+006 1.030898134176e+006 1.030898134176e+006 1.030898134176e+006 1.030395099555e+006 1.030395099555e+006 1.030395099555e+006 1.030395099555e+006 1.030395099554e+006 1.030395099555e+006 1.030395099555e+006 1.030395099555e+006 1.030395099555e+006 1.029893973100e+006 1.029893973099e+006 1.029893973099e+006 1.029893973100e+006 1.029893973100e+006 1.029893973100e+006 1.029893973100e+006 1.029893973099e+006 1.029893973100e+006 1.029357943079e+006 1.029357943079e+006 1.029357943079e+006 1.029357943079e+006 1.029357943079e+006 1.029357943079e+006 1.029357943079e+006 1.029357943079e+006 1.029357943079e+006 1.028832998222e+006 1.028832998222e+006 1.028832998222e+006 1.028832998222e+006 1.028832998222e+006 1.028832998222e+006 1.028832998222e+006 1.028832998222e+006 1.028832998222e+006 1.028297841270e+006 1.028297841270e+006 1.028297841270e+006 1.028297841270e+006 1.028297841270e+006 1.028297841270e+006 1.028297841270e+006 1.028297841270e+006 1.028297841269e+006 1.027750721740e+006 1.027750721740e+006 1.027750721740e+006 1.027750721740e+006 1.027750721740e+006 1.027750721740e+006 1.027750721740e+006 1.027750721740e+006 1.027750721740e+006 1.027207752172e+006 1.027207752172e+006 1.027207752172e+006 1.027207752172e+006 1.027207752172e+006 1.027207752172e+006 1.027207752171e+006 1.027207752172e+006 1.027207752172e+006 1.026636041465e+006 1.026636041464e+006 1.026636041465e+006 1.026636041464e+006 1.026636041464e+006 1.026636041464e+006 1.026636041464e+006 1.026636041464e+006 1.026636041464e+006 1.026060949886e+006 1.026060949886e+006 1.026060949886e+006 1.026060949886e+006 1.026060949886e+006 1.026060949886e+006 1.026060949886e+006 1.026060949886e+006 1.026060949886e+006 1.025513401880e+006 1.025513401880e+006 1.025513401880e+006 1.025513401880e+006 1.025513401880e+006 1.025513401880e+006 1.025513401880e+006 1.025513401880e+006 1.025513401880e+006 1.024924336795e+006 1.024924336795e+006 1.024924336795e+006 1.024924336795e+006 1.024924336795e+006 1.024924336795e+006 1.024924336795e+006 1.024924336795e+006 1.024924336795e+006 1.024340678505e+006 1.024340678506e+006 1.024340678505e+006 1.024340678505e+006 1.024340678505e+006 1.024340678505e+006 1.024340678505e+006 1.024340678506e+006 1.024340678505e+006 1.023750892741e+006 1.023750892740e+006 1.023750892740e+006 1.023750892741e+006 1.023750892741e+006 1.023750892740e+006 1.023750892741e+006 1.023750892740e+006 1.023750892740e+006 1.023147643712e+006 1.023147643711e+006 1.023147643712e+006 1.023147643711e+006 1.023147643712e+006 1.023147643711e+006 1.023147643711e+006 1.023147643711e+006 1.023147643712e+006 1.022556368868e+006 1.022556368869e+006 1.022556368868e+006 1.022556368868e+006 1.022556368869e+006 1.022556368869e+006 1.022556368869e+006 1.022556368869e+006 1.022556368868e+006 1.021961345310e+006 1.021961345309e+006 1.021961345309e+006 1.021961345309e+006 1.021961345309e+006 1.021961345309e+006 1.021961345308e+006 1.021961345309e+006 1.021961345309e+006 1.021349701761e+006 1.021349701761e+006 1.021349701761e+006 1.021349701761e+006 1.021349701761e+006 1.021349701761e+006 1.021349701761e+006 1.021349701761e+006 1.021349701761e+006 1.020735073634e+006 1.020735073635e+006 1.020735073635e+006 1.020735073635e+006 1.020735073635e+006 1.020735073635e+006 1.020735073635e+006 1.020735073635e+006 1.020735073635e+006 1.020133176597e+006 1.020133176598e+006 1.020133176597e+006 1.020133176598e+006 1.020133176598e+006 1.020133176597e+006 1.020133176598e+006 1.020133176598e+006 1.020133176597e+006 1.019521628755e+006 1.019521628755e+006 1.019521628756e+006 1.019521628755e+006 1.019521628754e+006 1.019521628754e+006 1.019521628755e+006 1.019521628755e+006 1.019521628754e+006 1.018858237590e+006 1.018858237590e+006 1.018858237589e+006 1.018858237590e+006 1.018858237589e+006 1.018858237590e+006 1.018858237589e+006 1.018858237590e+006 1.018858237590e+006 1.018279574670e+006 1.018279574670e+006 1.018279574671e+006 1.018279574672e+006 1.018279574673e+006 1.018279574673e+006 1.018279574673e+006 1.018279574674e+006 1.018279574673e+006 1.017691158117e+006 1.017691158117e+006 1.017691158115e+006 1.017691158111e+006 1.017691158108e+006 1.017691158106e+006 1.017691158106e+006 1.017691158105e+006 1.017691158105e+006 1.017034491041e+006 1.017034491040e+006 1.017034491043e+006 1.017034491052e+006 1.017034491058e+006 1.017034491061e+006 1.017034491062e+006 1.017034491064e+006 1.017034491064e+006 1.016351872287e+006 1.016351872288e+006 1.016351872286e+006 1.016351872269e+006 1.016351872261e+006 1.016351872257e+006 1.016351872254e+006 1.016351872253e+006 1.016351872252e+006 1.015879982129e+006 1.015879982130e+006 1.015879982129e+006 1.015879982154e+006 1.015879982162e+006 1.015879982166e+006 1.015879982170e+006 1.015879982172e+006 1.015879982173e+006 1.015084667983e+006 1.015084667981e+006 1.015084667985e+006 1.015084667961e+006 1.015084667957e+006 1.015084667952e+006 1.015084667949e+006 1.015084667947e+006 1.015084667947e+006 1.014645682456e+006 1.014645682460e+006 1.014645682456e+006 1.014645682464e+006 1.014645682463e+006 1.014645682466e+006 1.014645682466e+006 1.014645682467e+006 1.014645682467e+006 1.013904969168e+006 1.013904969170e+006 1.013904969165e+006 1.013904969178e+006 1.013904969175e+006 1.013904969177e+006 1.013904969177e+006 1.013904969177e+006 1.013904969178e+006 1.013305796451e+006 1.013305796452e+006 1.013305796447e+006 1.013305796452e+006 1.013305796447e+006 1.013305796448e+006 1.013305796449e+006 1.013305796448e+006 1.013305796448e+006 1.012736319693e+006 1.012736319694e+006 1.012736319690e+006 1.012736319693e+006 1.012736319690e+006 1.012736319690e+006 1.012736319690e+006 1.012736319689e+006 1.012736319690e+006 1.012124349888e+006 1.012124349887e+006 1.012124349887e+006 1.012124349888e+006 1.012124349886e+006 1.012124349886e+006 1.012124349887e+006 1.012124349886e+006 1.012124349886e+006 1.011531629189e+006 1.011531629189e+006 1.011531629189e+006 1.011531629189e+006 1.011531629189e+006 1.011531629189e+006 1.011531629190e+006 1.011531629190e+006 1.011531629189e+006 1.010918717813e+006 1.010918717813e+006 1.010918717812e+006 1.010918717814e+006 1.010918717813e+006 1.010918717812e+006 1.010918717814e+006 1.010918717813e+006 1.010918717814e+006 1.010324940197e+006 1.010324940197e+006 1.010324940197e+006 1.010324940198e+006 1.010324940198e+006 1.010324940197e+006 1.010324940198e+006 1.010324940197e+006 1.010324940197e+006 1.009787798188e+006 1.009787798188e+006 1.009787798188e+006 1.009787798188e+006 1.009787798188e+006 1.009787798188e+006 1.009787798188e+006 1.009787798188e+006 1.009787798188e+006 1.009202337699e+006 1.009202337698e+006 1.009202337698e+006 1.009202337698e+006 1.009202337699e+006 1.009202337698e+006 1.009202337698e+006 1.009202337698e+006 1.009202337699e+006 1.008662660471e+006 1.008662660472e+006 1.008662660472e+006 1.008662660471e+006 1.008662660470e+006 1.008662660472e+006 1.008662660472e+006 1.008662660471e+006 1.008662660470e+006 1.008144458305e+006 1.008144458305e+006 1.008144458304e+006 1.008144458304e+006 1.008144458304e+006 1.008144458304e+006 1.008144458305e+006 1.008144458304e+006 1.008144458304e+006 1.007616432351e+006 1.007616432351e+006 1.007616432351e+006 1.007616432351e+006 1.007616432351e+006 1.007616432351e+006 1.007616432351e+006 1.007616432351e+006 1.007616432351e+006 1.007177769537e+006 1.007177769537e+006 1.007177769537e+006 1.007177769537e+006 1.007177769537e+006 1.007177769537e+006 1.007177769537e+006 1.007177769537e+006 1.007177769537e+006 1.006804105885e+006 1.006804105885e+006 1.006804105886e+006 1.006804105886e+006 1.006804105886e+006 1.006804105886e+006 1.006804105886e+006 1.006804105886e+006 1.006804105886e+006 1.006463882040e+006 1.006463882040e+006 1.006463882040e+006 1.006463882040e+006 1.006463882040e+006 1.006463882040e+006 1.006463882040e+006 1.006463882040e+006 1.006463882040e+006 1.006123660978e+006 1.006123660978e+006 1.006123660978e+006 1.006123660978e+006 1.006123660979e+006 1.006123660978e+006 1.006123660978e+006 1.006123660978e+006 1.006123660978e+006 1.005783442691e+006 1.005783442691e+006 1.005783442691e+006 1.005783442691e+006 1.005783442691e+006 1.005783442691e+006 1.005783442690e+006 1.005783442690e+006 1.005783442690e+006 1.005443227090e+006 1.005443227090e+006 1.005443227090e+006 1.005443227090e+006 1.005443227090e+006 1.005443227090e+006 1.005443227090e+006 1.005443227090e+006 1.005443227090e+006 1.005103013983e+006 1.005103013983e+006 1.005103013983e+006 1.005103013982e+006 1.005103013982e+006 1.005103013983e+006 1.005103013982e+006 1.005103013982e+006 1.005103013982e+006 1.004762803181e+006 1.004762803181e+006 1.004762803181e+006 1.004762803180e+006 1.004762803180e+006 1.004762803180e+006 1.004762803180e+006 1.004762803181e+006 1.004762803181e+006 1.004422594514e+006 1.004422594514e+006 1.004422594514e+006 1.004422594514e+006 1.004422594514e+006 1.004422594513e+006 1.004422594513e+006 1.004422594513e+006 1.004422594513e+006 1.004082387819e+006 1.004082387819e+006 1.004082387819e+006 1.004082387819e+006 1.004082387819e+006 1.004082387819e+006 1.004082387819e+006 1.004082387819e+006 1.004082387819e+006 1.003742182932e+006 1.003742182933e+006 1.003742182933e+006 1.003742182933e+006 1.003742182932e+006 1.003742182932e+006 1.003742182932e+006 1.003742182932e+006 1.003742182932e+006 1.003401979688e+006 1.003401979688e+006 1.003401979688e+006 1.003401979688e+006 1.003401979688e+006 1.003401979688e+006 1.003401979688e+006 1.003401979688e+006 1.003401979688e+006 1.003061777917e+006 1.003061777917e+006 1.003061777917e+006 1.003061777917e+006 1.003061777917e+006 1.003061777917e+006 1.003061777917e+006 1.003061777917e+006 1.003061777917e+006 1.002721577450e+006 1.002721577450e+006 1.002721577450e+006 1.002721577450e+006 1.002721577450e+006 1.002721577450e+006 1.002721577450e+006 1.002721577450e+006 1.002721577450e+006 1.002381378116e+006 1.002381378116e+006 1.002381378116e+006 1.002381378116e+006 1.002381378116e+006 1.002381378116e+006 1.002381378116e+006 1.002381378116e+006 1.002381378116e+006 1.002041179744e+006 1.002041179744e+006 1.002041179744e+006 1.002041179744e+006 1.002041179744e+006 1.002041179744e+006 1.002041179744e+006 1.002041179744e+006 1.002041179744e+006 1.001700982160e+006 1.001700982160e+006 1.001700982160e+006 1.001700982160e+006 1.001700982160e+006 1.001700982160e+006 1.001700982160e+006 1.001700982160e+006 1.001700982160e+006 1.001360785192e+006 1.001360785192e+006 1.001360785192e+006 1.001360785192e+006 1.001360785192e+006 1.001360785192e+006 1.001360785192e+006 1.001360785192e+006 1.001360785192e+006 1.001020588666e+006 1.001020588666e+006 1.001020588666e+006 1.001020588666e+006 1.001020588666e+006 1.001020588666e+006 1.001020588666e+006 1.001020588666e+006 1.001020588666e+006 1.000680392408e+006 1.000680392408e+006 1.000680392408e+006 1.000680392408e+006 1.000680392408e+006 1.000680392408e+006 1.000680392408e+006 1.000680392408e+006 1.000680392408e+006 1.000340196244e+006 1.000340196244e+006 1.000340196244e+006 1.000340196244e+006 1.000340196244e+006 1.000340196244e+006 1.000340196244e+006 1.000340196244e+006 1.000340196244e+006 1.000000000000e+006 1.000000000000e+006 1.000000000000e+006 1.000000000000e+006 1.000000000000e+006 1.000000000000e+006 1.000000000000e+006 1.000000000000e+006 1.000000000000e+006 
        </DataArray>
        <DataArray type="Float64" Name="MOLAR_FRACTION" format="ascii">