<?xml version="1.0"?>
<VTKFile type="UnstructuredGrid" version="0.1" byte_order="LittleEndian">
  <UnstructuredGrid>
    <Piece NumberOfPoints="909" NumberOfCells="800">
      <Points>
        <DataArray type="Float64" NumberOfComponents="3" format="ascii">
          0.000000000000e+000 0.000000000000e+000 0.000000000000e+000
          2.000000000000e+000 0.000000000000e+000 0.000000000000e+000
          2.000000000000e+000 2.500000000000e+000 0.000000000000e+000
          0.000000000000e+000 2.500000000000e+000 0.000000000000e+000
          2.000000000000e+000 5.000000000000e+000 0.000000000000e+000
          0.000000000000e+000 5.000000000000e+000 0.000000000000e+000
          2.000000000000e+000 7.500000000000e+000 0.000000000000e+000
          0.000000000000e+000 7.500000000000e+000 0.000000000000e+000
          2.000000000000e+000 1.000000000000e+001 0.000000000000e+000
          0.000000000000e+000 1.000000000000e+001 0.000000000000e+000
          2.000000000000e+000 1.250000000000e+001 0.000000000000e+000
          0.000000000000e+000 1.250000000000e+001 0.000000000000e+000
          2.000000000000e+000 1.500000000000e+001 0.000000000000e+000
          0.000000000000e+000 1.500000000000e+001 0.000000000000e+000
          2.000000000000e+000 1.750000000000e+001 0.000000000000e+000
          0.000000000000e+000 1.750000000000e+001 0.000000000000e+000
          2.000000000000e+000 2.000000000000e+001 0.000000000000e+000
          0.000000000000e+000 2.000000000000e+001 0.000000000000e+000
          4.000000000000e+000 0.000000000000e+000 0.000000000000e+000
          4.000000000000e+000 2.500000000000e+000 0.000000000000e+000
          4.000000000000e+000 5.000000000000e+000 0.000000000000e+000
          4.000000000000e+000 7.500000000000e+000 0.000000000000e+000
          4.000000000000e+000 1.000000000000e+001 0.000000000000e+000
          4.000000000000e+000 1.250000000000e+001 0.000000000000e+000
          4.000000000000e+000 1.500000000000e+001 0.000000000000e+000
          4.000000000000e+000 1.750000000000e+001 0.000000000000e+000
          4.000000000000e+000 2.000000000000e+001 0.000000000000e+000
          6.000000000000e+000 0.000000000000e+000 0.000000000000e+000
          6.000000000000e+000 2.500000000000e+000 0.000000000000e+000
          6.000000000000e+000 5.000000000000e+000 0.000000000000e+000
          6.000000000000e+000 7.500000000000e+000 0.000000000000e+000
          6.000000000000e+000 1.000000000000e+001 0.000000000000e+000
          6.000000000000e+000 1.250000000000e+001 0.000000000000e+000
          6.000000000000e+000 1.500000000000e+001 0.000000000000e+000
          6.000000000000e+000 1.750000000000e+001 0.000000000000e+000
          6.000000000000e+000 2.000000000000e+001 0.000000000000e+000
          8.000000000000e+000 0.000000000000e+000 0.000000000000e+000
          8.000000000000e+000 2.500000000000e+000 0.000000000000e+000
          8.000000000000e+000 5.000000000000e+000 0.000000000000e+000
          8.000000000000e+000 7.500000000000e+000 0.000000000000e+000
          8.000000000000e+000 1.000000000000e+001 0.000000000000e+000
          8.000000000000e+000 1.250000000000e+001 0.000000000000e+000
          8.000000000000e+000 1.500000000000e+001 0.000000000000e+000
          8.000000000000e+000 1.750000000000e+001 0.000000000000e+000
          8.000000000000e+000 2.000000000000e+001 0.000000000000e+000
          1.000000000000e+001 0.000000000000e+000 0.000000000000e+000
          1.000000000000e+001 2.500000000000e+000 0.000000000000e+000
          1.000000000000e+001 5.000000000000e+000 0.000000000000e+000
          1.000000000000e+001 7.500000000000e+000 0.000000000000e+000
          1.000000000000e+001 1.000000000000e+001 0.000000000000e+000
          1.000000000000e+001 1.250000000000e+001 0.000000000000e+000
          1.000000000000e+001 1.500000000000e+001 0.000000000000e+000
          1.000000000000e+001 1.750000000000e+001 0.000000000000e+000
          1.000000000000e+001 2.000000000000e+001 0.000000000000e+000
          1.200000000000e+001 0.000000000000e+000 0.000000000000e+000
          1.200000000000e+001 2.500000000000e+000 0.000000000000e+000
          1.200000000000e+001 5.000000000000e+000 0.000000000000e+000
          1.200000000000e+001 7.500000000000e+000 0.000000000000e+000
          1.200000000000e+001 1.000000000000e+001 0.000000000000e+000
          1.200000000000e+001 1.250000000000e+001 0.000000000000e+000
          1.200000000000e+001 1.500000000000e+001 0.000000000000e+000
          1.200000000000e+001 1.750000000000e+001 0.000000000000e+000
          1.200000000000e+001 2.000000000000e+001 0.000000000000e+000
          1.400000000000e+001 0.000000000000e+000 0.000000000000e+000
          1.400000000000e+001 2.500000000000e+000 0.000000000000e+000
          1.400000000000e+001 5.000000000000e+000 0.000000000000e+000
          1.400000000000e+001 7.500000000000e+000 0.000000000000e+000
          1.400000000000e+001 1.000000000000e+001 0.000000000000e+000
          1.400000000000e+001 1.250000000000e+001 0.000000000000e+000
          1.400000000000e+001 1.500000000000e+001 0.000000000000e+000
          1.400000000000e+001 1.750000000000e+001 0.000000000000e+000
          1.400000000000e+001 2.000000000000e+001 0.000000000000e+000
          1.600000000000e+001 0.000000000000e+000 0.000000000000e+000
          1.600000000000e+001 2.500000000000e+000 0.000000000000e+000
          1.600000000000e+001 5.000000000000e+000 0.000000000000e+000
          1.600000000000e+001 7.500000000000e+000 0.000000000000e+000
          1.600000000000e+001 1.000000000000e+001 0.000000000000e+000
          1.600000000000e+001 1.250000000000e+001 0.000000000000e+000
          1.600000000000e+001 1.500000000000e+001 0.000000000000e+000
          1.600000000000e+001 1.750000000000e+001 0.000000000000e+000
          1.600000000000e+001 2.000000000000e+001 0.000000000000e+000
          1.800000000000e+001 0.000000000000e+000 0.000000000000e+000
          1.800000000000e+001 2.500000000000e+000 0.000000000000e+000
          1.800000000000e+001 5.000000000000e+000 0.000000000000e+000
          1.800000000000e+001 7.500000000000e+000 0.000000000000e+000
          1.800000000000e+001 1.000000000000e+001 0.000000000000e+000
          1.800000000000e+001 1.250000000000e+001 0.000000000000e+000
          1.800000000000e+001 1.500000000000e+001 0.000000000000e+000
          1.800000000000e+001 1.750000000000e+001 0.000000000000e+000
          1.800000000000e+001 2.000000000000e+001 0.000000000000e+000
          2.000000000000e+001 0.000000000000e+000 0.000000000000e+000
          2.000000000000e+001 2.500000000000e+000 0.000000000000e+000
          2.000000000000e+001 5.000000000000e+000 0.000000000000e+000
          2.000000000000e+001 7.500000000000e+000 0.000000000000e+000
          2.000000000000e+001 1.000000000000e+001 0.000000000000e+000
          2.000000000000e+001 1.250000000000e+001 0.000000000000e+000
          2.000000000000e+001 1.500000000000e+001 0.000000000000e+000
          2.000000000000e+001 1.750000000000e+001 0.000000000000e+000
          2.000000000000e+001 2.000000000000e+001 0.000000000000e+000
          2.200000000000e+001 0.000000000000e+000 0.000000000000e+000
          2.200000000000e+001 2.500000000000e+000 0.000000000000e+000
          2.200000000000e+001 5.000000000000e+000 0.000000000000e+000
          2.200000000000e+001 7.500000000000e+000 0.000000000000e+000
          2.200000000000e+001 1.000000000000e+001 0.000000000000e+000
          2.200000000000e+001 1.250000000000e+001 0.000000000000e+000
          2.200000000000e+001 1.500000000000e+001 0.000000000000e+000
          2.200000000000e+001 1.750000000000e+001 0.000000000000e+000
          2.200000000000e+001 2.000000000000e+001 0.000000000000e+000
          2.400000000000e+001 0.000000000000e+000 0.000000000000e+000
          2.400000000000e+001 2.500000000000e+000 0.000000000000e+000
          2.400000000000e+001 5.000000000000e+000 0.000000000000e+000
          2.400000000000e+001 7.500000000000e+000 0.000000000000e+000
          2.400000000000e+001 1.000000000000e+001 0.000000000000e+000
          2.400000000000e+001 1.250000000000e+001 0.000000000000e+000
          2.400000000000e+001 1.500000000000e+001 0.000000000000e+000
          2.400000000000e+001 1.750000000000e+001 0.000000000000e+000
          2.400000000000e+001 2.000000000000e+001 0.000000000000e+000
          2.600000000000e+001 0.000000000000e+000 0.000000000000e+000
          2.600000000000e+001 2.500000000000e+000 0.000000000000e+000
          2.600000000000e+001 5.000000000000e+000 0.000000000000e+000
          2.600000000000e+001 7.500000000000e+000 0.000000000000e+000
          2.600000000000e+001 1.000000000000e+001 0.000000000000e+000
          2.600000000000e+001 1.250000000000e+001 0.000000000000e+000
          2.600000000000e+001 1.500000000000e+001 0.000000000000e+000
          2.600000000000e+001 1.750000000000e+001 0.000000000000e+000
          2.600000000000e+001 2.000000000000e+001 0.000000000000e+000
          2.800000000000e+001 0.000000000000e+000 0.000000000000e+000
          2.800000000000e+001 2.500000000000e+000 0.000000000000e+000
          2.800000000000e+001 5.000000000000e+000 0.000000000000e+000
          2.800000000000e+001 7.500000000000e+000 0.000000000000e+000
          2.800000000000e+001 1.000000000000e+001 0.000000000000e+000
          2.800000000000e+001 1.250000000000e+001 0.000000000000e+000
          2.800000000000e+001 1.500000000000e+001 0.000000000000e+000
          2.800000000000e+001 1.750000000000e+001 0.000000000000e+000
          2.800000000000e+001 2.000000000000e+001 0.000000000000e+000
          3.000000000000e+001 0.000000000000e+000 0.000000000000e+000
          3.000000000000e+001 2.500000000000e+000 0.000000000000e+000
          3.000000000000e+001 5.000000000000e+000 0.000000000000e+000
          3.000000000000e+001 7.500000000000e+000 0.000000000000e+000
[...]
      <PointData Scalars="LIQUID_PRESSURE">
        <DataArray type="Float64" Name="LIQUID_PRESSURE" format="ascii">
          1.018934629959e+006 1.018945788962e+006 1.018945788971e+006 1.018934629889e+006 1.018945789000e+006 1.018934629841e+006 1.018945788963e+006 1.018934629909e+006 1.018945788980e+006 1.018934629900e+006 1.018945789020e+006 1.018934629803e+006 1.018945789015e+006 1.018934629813e+006 1.018945789032e+006 1.018934629784e+006 1.018945789057e+006 1.018934629719e+006 1.018936429957e+006 1.018936429986e+006 1.018936429997e+006 1.018936429969e+006 1.018936429971e+006 1.018936430004e+006 1.018936429983e+006 1.018936430000e+006 1.018936430021e+006 1.018893858559e+006 1.018893858574e+006 1.018893858580e+006 1.018893858559e+006 1.018893858562e+006 1.018893858574e+006 1.018893858569e+006 1.018893858565e+006 1.018893858578e+006 1.018896359207e+006 1.018896359218e+006 1.018896359216e+006 1.018896359197e+006 1.018896359194e+006 1.018896359204e+006 1.018896359198e+006 1.018896359196e+006 1.018896359206e+006 1.018848326120e+006 1.018848326125e+006 1.018848326117e+006 1.018848326111e+006 1.018848326108e+006 1.018848326120e+006 1.018848326111e+006 1.018848326114e+006 1.018848326125e+006 1.018797120278e+006 1.018797120276e+006 1.018797120277e+006 1.018797120274e+006 1.018797120274e+006 1.018797120274e+006 1.018797120276e+006 1.018797120281e+006 1.018797120284e+006 1.018775039756e+006 1.018775039743e+006 1.018775039747e+006 1.018775039748e+006 1.018775039744e+006 1.018775039743e+006 1.018775039748e+006 1.018775039749e+006 1.018775039757e+006 1.018691905046e+006 1.018691905039e+006 1.018691905040e+006 1.018691905042e+006 1.018691905036e+006 1.018691905036e+006 1.018691905045e+006 1.018691905049e+006 1.018691905045e+006 1.018645553616e+006 1.018645553610e+006 1.018645553612e+006 1.018645553611e+006 1.018645553608e+006 1.018645553607e+006 1.018645553617e+006 1.018645553618e+006 1.018645553616e+006 1.018574815720e+006 1.018574815729e+006 1.018574815728e+006 1.018574815725e+006 1.018574815722e+006 1.018574815723e+006 1.018574815734e+006 1.018574815736e+006 1.018574815731e+006 1.018487421003e+006 1.018487421012e+006 1.018487421007e+006 1.018487421008e+006 1.018487421004e+006 1.018487421001e+006 1.018487421015e+006 1.018487421018e+006 1.018487421016e+006 1.018419528518e+006 1.018419528514e+006 1.018419528521e+006 1.018419528512e+006 1.018419528512e+006 1.018419528521e+006 1.018419528516e+006 1.018419528520e+006 1.018419528525e+006 1.018310664706e+006 1.018310664698e+006 1.018310664694e+006 1.018310664697e+006 1.018310664695e+006 1.018310664700e+006 1.018310664700e+006 1.018310664700e+006 1.018310664701e+006 1.018228980223e+006 1.018228980221e+006 1.018228980211e+006 1.018228980219e+006 1.018228980215e+006 1.018228980221e+006 1.018228980216e+006 1.018228980220e+006 1.018228980218e+006 1.018114968262e+006 1.018114968261e+006 1.018114968260e+006 1.018114968258e+006 1.018114968259e+006 1.018114968256e+006 1.018114968257e+006 1.018114968255e+006 1.018114968257e+006 1.018005032107e+006 1.018005032101e+006 1.018005032099e+006 1.018005032099e+006 1.018005032105e+006 1.018005032098e+006 1.018005032102e+006 1.018005032100e+006 1.018005032103e+006 1.017896643663e+006 1.017896643673e+006 1.017896643664e+006 1.017896643667e+006 1.017896643674e+006 1.017896643670e+006 1.017896643671e+006 1.017896643666e+006 1.017896643667e+006 1.017753739542e+006 1.017753739542e+006 1.017753739542e+006 1.017753739537e+006 1.017753739541e+006 1.017753739542e+006 1.017753739537e+006 1.017753739535e+006 1.017753739536e+006 1.017643837813e+006 1.017643837801e+006 1.017643837803e+006 1.017643837809e+006 1.017643837804e+006 1.017643837796e+006 1.017643837795e+006 1.017643837795e+006 1.017643837799e+006 1.017491782034e+006 1.017491782032e+006 1.017491782033e+006 1.017491782041e+006 1.017491782030e+006 1.017491782032e+006 1.017491782029e+006 1.017491782020e+006 1.017491782028e+006 1.017355257299e+006 1.017355257313e+006 1.017355257313e+006 1.017355257309e+006 1.017355257308e+006 1.017355257306e+006 1.017355257301e+006 1.017355257297e+006 1.017355257292e+006 1.017205037225e+006 1.017205037229e+006 1.017205037233e+006 1.017205037230e+006 1.017205037227e+006 1.017205037228e+006 1.017205037223e+006 1.017205037217e+006 1.017205037215e+006 1.017046124761e+006 1.017046124760e+006 1.017046124762e+006 1.017046124761e+006 1.017046124760e+006 1.017046124759e+006 1.017046124757e+006 1.017046124752e+006 1.017046124744e+006 1.016893358575e+006 1.016893358579e+006 1.016893358574e+006 1.016893358575e+006 1.016893358572e+006 1.016893358570e+006 1.016893358572e+006 1.016893358568e+006 1.016893358563e+006 1.016713492802e+006 1.016713492811e+006 1.016713492809e+006 1.016713492806e+006 1.016713492803e+006 1.016713492801e+006 1.016713492799e+006 1.016713492799e+006 1.016713492793e+006 1.016551683470e+006 1.016551683473e+006 1.016551683477e+006 1.016551683473e+006 1.016551683470e+006 1.016551683467e+006 1.016551683468e+006 1.016551683470e+006 1.016551683466e+006 1.016368719972e+006 1.016368719970e+006 1.016368719970e+006 1.016368719971e+006 1.016368719967e+006 1.016368719958e+006 1.016368719964e+006 1.016368719967e+006 1.016368719971e+006 1.016179175698e+006 1.016179175693e+006 1.016179175686e+006 1.016179175691e+006 1.016179175686e+006 1.016179175682e+006 1.016179175687e+006 1.016179175689e+006 1.016179175697e+006 1.016003504749e+006 1.016003504745e+006 1.016003504741e+006 1.016003504743e+006 1.016003504741e+006 1.016003504738e+006 1.016003504737e+006 1.016003504738e+006 1.016003504740e+006 1.015793714557e+006 1.015793714556e+006 1.015793714553e+006 1.015793714556e+006 1.015793714553e+006 1.015793714548e+006 1.015793714551e+006 1.015793714546e+006 1.015793714542e+006 1.015601960715e+006 1.015601960716e+006 1.015601960715e+006 1.015601960718e+006 1.015601960716e+006 1.015601960711e+006 1.015601960714e+006 1.015601960710e+006 1.015601960711e+006 1.015400534087e+006 1.015400534080e+006 1.015400534080e+006 1.015400534082e+006 1.015400534082e+006 1.015400534081e+006 1.015400534076e+006 1.015400534070e+006 1.015400534072e+006 1.015177970913e+006 1.015177970910e+006 1.015177970909e+006 1.015177970911e+006 1.015177970911e+006 1.015177970907e+006 1.015177970904e+006 1.015177970902e+006 1.015177970899e+006 1.014978333919e+006 1.014978333918e+006 1.014978333914e+006 1.014978333916e+006 1.014978333920e+006 1.014978333914e+006 1.014978333913e+006 1.014978333909e+006 1.014978333911e+006 1.014751360949e+006 1.014751360941e+006 1.014751360939e+006 1.014751360937e+006 1.014751360939e+006 1.014751360942e+006 1.014751360937e+006 1.014751360937e+006 1.014751360933e+006 1.014526043747e+006 1.014526043748e+006 1.014526043746e+006 1.014526043745e+006 1.014526043746e+006 1.014526043745e+006 1.014526043744e+006 1.014526043740e+006 1.014526043738e+006 1.014306686783e+006 1.014306686789e+006 1.014306686792e+006 1.014306686791e+006 1.014306686788e+006 1.014306686787e+006 1.014306686788e+006 1.014306686782e+006 1.014306686776e+006 1.014066998216e+006 1.014066998215e+006 1.014066998215e+006 1.014066998218e+006 1.014066998218e+006 1.014066998215e+006 1.014066998212e+006 1.014066998208e+006 1.014066998207e+006 1.013831003549e+006 1.013831003545e+006 1.013831003546e+006 1.013831003546e+006 1.013831003548e+006 1.013831003544e+006 1.013831003546e+006 1.013831003538e+006 1.013831003541e+006 1.013601653028e+006 1.013601653030e+006 1.013601653027e+006 1.013601653029e+006 1.013601653028e+006 1.013601653025e+006 1.013601653027e+006 1.013601653024e+006 1.013601653024e+006 1.013346203766e+006 1.013346203766e+006 1.013346203764e+006 1.013346203766e+006 1.013346203762e+006 1.013346203760e+006 1.013346203759e+006 1.013346203760e+006 1.013346203760e+006 1.013103410970e+006 1.013103410970e+006 1.013103410969e+006 1.013103410968e+006 1.013103410966e+006 1.013103410960e+006 1.013103410967e+006 1.013103410962e+006 1.013103410963e+006 1.012854337187e+006 1.012854337190e+006 1.012854337187e+006 1.012854337184e+006 1.012854337181e+006 1.012854337179e+006 1.012854337179e+006 1.012854337183e+006 1.012854337183e+006 1.012597539668e+006 1.012597539671e+006 1.012597539670e+006 1.012597539668e+006 1.012597539664e+006 1.012597539660e+006 1.012597539660e+006 1.012597539661e+006 1.012597539659e+006 1.012350086610e+006 1.012350086615e+006 1.012350086612e+006 1.012350086613e+006 1.012350086607e+006 1.012350086603e+006 1.012350086602e+006 1.012350086602e+006 1.012350086603e+006 1.012082254371e+006 1.012082254373e+006 1.012082254372e+006 1.012082254372e+006 1.012082254366e+006 1.012082254366e+006 1.012082254368e+006 1.012082254366e+006 1.012082254367e+006 1.011811239795e+006 1.011811239795e+006 1.011811239795e+006 1.011811239795e+006 1.011811239794e+006 1.011811239791e+006 1.011811239792e+006 1.011811239793e+006 1.011811239791e+006 1.011565615753e+006 1.011565615755e+006 1.011565615755e+006 1.011565615754e+006 1.011565615756e+006 1.011565615753e+006 1.011565615754e+006 1.011565615753e+006 1.011565615754e+006 1.011287725267e+006 1.011287725271e+006 1.011287725273e+006 1.011287725274e+006 1.011287725274e+006 1.011287725272e+006 1.011287725271e+006 1.011287725271e+006 1.011287725272e+006 1.011020083892e+006 1.011020083890e+006 1.011020083893e+006 1.011020083893e+006 1.011020083892e+006 1.011020083893e+006 1.011020083892e+006 1.011020083892e+006 1.011020083890e+006 1.010750144304e+006 1.010750144301e+006 1.010750144301e+006 1.010750144300e+006 1.010750144299e+006 1.010750144301e+006 1.010750144303e+006 1.010750144301e+006 1.010750144299e+006 1.010469754356e+006 1.010469754360e+006 1.010469754361e+006 1.010469754356e+006 1.010469754356e+006 1.010469754357e+006 1.010469754356e+006 1.010469754355e+006 1.010469754356e+006 1.010198885100e+006 1.010198885104e+006 1.010198885106e+006 1.010198885106e+006 1.010198885106e+006 1.010198885104e+006 1.010198885103e+006 1.010198885102e+006 1.010198885104e+006 1.009927393950e+006 1.009927393951e+006 1.009927393952e+006 1.009927393954e+006 1.009927393953e+006 1.009927393951e+006 1.009927393951e+006 1.009927393952e+006 1.009927393950e+006 1.009643678176e+006 1.009643678179e+006 1.009643678181e+006 1.009643678179e+006 1.009643678180e+006 1.009643678178e+006 1.009643678180e+006 1.009643678179e+006 1.009643678180e+006 1.009361617297e+006 1.009361617299e+006 1.009361617298e+006 1.009361617296e+006 1.009361617297e+006 1.009361617298e+006 1.009361617296e+006 1.009361617297e+006 1.009361617299e+006 1.009088927728e+006 1.009088927730e+006 1.009088927729e+006 1.009088927727e+006 1.009088927727e+006 1.009088927729e+006 1.009088927728e+006 1.009088927726e+006 1.009088927726e+006 1.008818214818e+006 1.008818214818e+006 1.008818214818e+006 1.008818214818e+006 1.008818214818e+006 1.008818214818e+006 1.008818214819e+006 1.008818214818e+006 1.008818214815e+006 1.008497035433e+006 1.008497035433e+006 1.008497035433e+006 1.008497035431e+006 1.008497035429e+006 1.008497035429e+006 1.008497035429e+006 1.008497035428e+006 1.008497035429e+006 1.008244528587e+006 1.008244528590e+006 1.008244528589e+006 1.008244528592e+006 1.008244528594e+006 1.008244528595e+006 1.008244528595e+006 1.008244528596e+006 1.008244528593e+006 1.007982629277e+006 1.007982629279e+006 1.007982629279e+006 1.007982629273e+006 1.007982629270e+006 1.007982629268e+006 1.007982629266e+006 1.007982629267e+006 1.007982629265e+006 1.007679397778e+006 1.007679397779e+006 1.007679397781e+006 1.007679397790e+006 1.007679397795e+006 1.007679397798e+006 1.007679397798e+006 1.007679397801e+006 1.007679397798e+006 1.007345905464e+006 1.007345905461e+006 1.007345905462e+006 1.007345905442e+006 1.007345905437e+006 1.007345905430e+006 1.007345905427e+006 1.007345905425e+006 1.007345905424e+006 1.007191969749e+006 1.007191969754e+006 1.007191969750e+006 1.007191969772e+006 1.007191969775e+006 1.007191969779e+006 1.007191969778e+006 1.007191969780e+006 1.007191969781e+006 1.006752323467e+006 1.006752323463e+006 1.006752323470e+006 1.006752323448e+006 1.006752323442e+006 1.006752323438e+006 1.006752323431e+006 1.006752323427e+006 1.006752323428e+006 1.006631492169e+006 1.006631492172e+006 1.006631492173e+006 1.006631492179e+006 1.006631492176e+006 1.006631492176e+006 1.006631492174e+006 1.006631492172e+006 1.006631492172e+006 1.006244663496e+006 1.006244663503e+006 1.006244663496e+006 1.006244663507e+006 1.006244663503e+006 1.006244663500e+006 1.006244663498e+006 1.006244663500e+006 1.006244663500e+006 1.005991536547e+006 1.005991536549e+006 1.005991536545e+006 1.005991536549e+006 1.005991536543e+006 1.005991536542e+006 1.005991536540e+006 1.005991536539e+006 1.005991536542e+006 1.005742406690e+006 1.005742406693e+006 1.005742406691e+006 1.005742406693e+006 1.005742406689e+006 1.005742406688e+006 1.005742406686e+006 1.005742406688e+006 1.005742406687e+006 1.005456873489e+006 1.005456873487e+006 1.005456873487e+006 1.005456873488e+006 1.005456873486e+006 1.005456873486e+006 1.005456873486e+006 1.005456873485e+006 1.005456873487e+006 1.005193511143e+006 1.005193511144e+006 1.005193511144e+006 1.005193511144e+006 1.005193511144e+006 1.005193511145e+006 1.005193511144e+006 1.005193511144e+006 1.005193511143e+006 1.004914752389e+006 1.004914752388e+006 1.004914752389e+006 1.004914752390e+006 1.004914752389e+006 1.004914752389e+006 1.004914752390e+006 1.004914752388e+006 1.004914752387e+006 1.004647561228e+006 1.004647561227e+006 1.004647561228e+006 1.004647561228e+006 1.004647561228e+006 1.004647561227e+006 1.004647561227e+006 1.004647561226e+006 1.004647561226e+006 1.004417820325e+006 1.004417820323e+006 1.004417820324e+006 1.004417820325e+006 1.004417820324e+006 1.004417820325e+006 1.004417820324e+006 1.004417820325e+006 1.004417820323e+006 1.004142233003e+006 1.004142233002e+006 1.004142233002e+006 1.004142233002e+006 1.004142233003e+006 1.004142233003e+006 1.004142233002e+006 1.004142233002e+006 1.004142233005e+006 1.003900751934e+006 1.003900751935e+006 1.003900751935e+006 1.003900751934e+006 1.003900751934e+006 1.003900751934e+006 1.003900751934e+006 1.003900751934e+006 1.003900751934e+006 1.003670627781e+006 1.003670627778e+006 1.003670627780e+006 1.003670627780e+006 1.003670627780e+006 1.003670627780e+006 1.003670627779e+006 1.003670627780e+006 1.003670627780e+006 1.003419445179e+006 1.003419445179e+006 1.003419445178e+006 1.003419445179e+006 1.003419445180e+006 1.003419445178e+006 1.003419445179e+006 1.003419445180e+006 1.003419445180e+006 1.003219941394e+006 1.003219941395e+006 1.003219941397e+006 1.003219941396e+006 1.003219941397e+006 1.003219941397e+006 1.003219941396e+006 1.003219941396e+006 1.003219941397e+006 1.003027336117e+006 1.003027336117e+006 1.003027336119e+006 1.003027336118e+006 1.003027336119e+006 1.003027336119e+006 1.003027336118e+006 1.003027336118e+006 1.003027336117e+006 1.002875962841e+006 1.002875962841e+006 1.002875962842e+006 1.002875962842e+006 1.002875962842e+006 1.002875962842e+006 1.002875962842e+006 1.002875962841e+006 1.002875962841e+006 1.002724591290e+006 1.002724591290e+006 1.002724591290e+006 1.002724591290e+006 1.002724591291e+006 1.002724591290e+006 1.002724591290e+006 1.002724591290e+006 1.002724591290e+006 1.002573220462e+006 1.002573220462e+006 1.002573220462e+006 1.002573220462e+006 1.002573220462e+006 1.002573220462e+006 1.002573220462e+006 1.002573220461e+006 1.002573220462e+006 1.002421850470e+006 1.002421850470e+006 1.002421850470e+006 1.002421850470e+006 1.002421850470e+006 1.002421850470e+006 1.002421850470e+006 1.002421850470e+006 1.002421850470e+006 1.002270481275e+006 1.002270481275e+006 1.002270481275e+006 1.002270481275e+006 1.002270481275e+006 1.002270481275e+006 1.002270481275e+006 1.002270481275e+006 1.002270481275e+006 1.002119112815e+006 1.002119112816e+006 1.002119112815e+006 1.002119112815e+006 1.002119112815e+006 1.002119112815e+006 1.002119112815e+006 1.002119112815e+006 1.002119112815e+006 1.001967745032e+006 1.001967745032e+006 1.001967745032e+006 1.001967745032e+006 1.001967745032e+006 1.001967745032e+006 1.001967745032e+006 1.001967745032e+006 1.001967745032e+006 1.001816377872e+006 1.001816377872e+006 1.001816377872e+006 1.001816377872e+006 1.001816377872e+006 1.001816377872e+006 1.001816377872e+006 1.001816377872e+006 1.001816377872e+006 1.001665011278e+006 1.001665011279e+006 1.001665011279e+006 1.001665011279e+006 1.001665011279e+006 1.001665011279e+006 1.001665011279e+006 1.001665011279e+006 1.001665011279e+006 1.001513645197e+006 1.001513645197e+006 1.001513645197e+006 1.001513645197e+006 1.001513645197e+006 1.001513645197e+006 1.001513645197e+006 1.001513645197e+006 1.001513645197e+006 1.001362279569e+006 1.001362279569e+006 1.001362279569e+006 1.001362279569e+006 1.001362279569e+006 1.001362279569e+006 1.001362279569e+006 1.001362279569e+006 1.001362279569e+006 1.001210914340e+006 1.001210914340e+006 1.001210914340e+006 1.001210914340e+006 1.001210914340e+006 1.001210914340e+006 1.001210914340e+006 1.001210914340e+006 1.001210914340e+006 1.001059549451e+006 1.001059549451e+006 1.001059549451e+006 1.001059549451e+006 1.001059549451e+006 1.001059549452e+006 1.001059549452e+006 1.001059549452e+006 1.001059549452e+006 1.000908184848e+006 1.000908184848e+006 1.000908184848e+006 1.000908184848e+006 1.000908184848e+006 1.000908184848e+006 1.000908184848e+006 1.000908184848e+006 1.000908184848e+006 1.000756820472e+006 1.000756820472e+006 1.000756820472e+006 1.000756820472e+006 1.000756820472e+006 1.000756820472e+006 1.000756820472e+006 1.000756820472e+006 1.000756820472e+006 1.000605456266e+006 1.000605456266e+006 1.000605456266e+006 1.000605456266e+006 1.000605456266e+006 1.000605456266e+006 1.000605456267e+006 1.000605456267e+006 1.000605456267e+006 1.000454092174e+006 1.000454092174e+006 1.000454092174e+006 1.000454092174e+006 1.000454092174e+006 1.000454092174e+006 1.000454092174e+006 1.000454092174e+006 1.000454092174e+006 1.000302728137e+006 1.000302728137e+006 1.000302728137e+006 1.000302728137e+006 1.000302728137e+006 1.000302728137e+006 1.000302728137e+006 1.000302728137e+006 1.000302728137e+006 1.000151364098e+006 1.000151364098e+006 1.000151364098e+006 1.000151364098e+006 1.000151364098e+006 1.000151364098e+006 1.000151364098e+006 1.000151364098e+006 1.000151364098e+006 1.000000000000e+006 1.000000000000e+006 1.000000000000e+006 1.000000000000e+006 1.000000000000e+006 1.000000000000e+006 1.000000000000e+006 1.000000000000e+006 1.000000000000e+006 
        </DataArray>
        <DataArray type="Float64" Name="MOLAR_FRACTION" format="ascii">