<?xml version="1.0"?>
<VTKFile type="UnstructuredGrid" version="0.1" byte_order="LittleEndian">
  <UnstructuredGrid>
    <Piece NumberOfPoints="909" NumberOfCells="800">
      <Points>
        <DataArray type="Float64" NumberOfComponents="3" format="ascii">
          0.000000000000e+000 0.000000000000e+000 0.000000000000e+000
          2.000000000000e+000 0.000000000000e+000 0.000000000000e+000
          2.000000000000e+000 2.500000000000e+000 0.000000000000e+000
          0.000000000000e+000 2.500000000000e+000 0.000000000000e+000
          2.000000000000e+000 5.000000000000e+000 0.000000000000e+000
          0.000000000000e+000 5.000000000000e+000 0.000000000000e+000
          2.000000000000e+000 7.500000000000e+000 0.000000000000e+000
          0.000000000000e+000 7.500000000000e+000 0.000000000000e+000
          2.000000000000e+000 1.000000000000e+001 0.000000000000e+000
          0.000000000000e+000 1.000000000000e+001 0.000000000000e+000
          2.000000000000e+000 1.250000000000e+001 0.000000000000e+000
          0.000000000000e+000 1.250000000000e+001 0.000000000000e+000
          2.000000000000e+000 1.500000000000e+001 0.000000000000e+000
          0.000000000000e+000 1.500000000000e+001 0.000000000000e+000
          2.000000000000e+000 1.750000000000e+001 0.000000000000e+000
          0.000000000000e+000 1.750000000000e+001 0.000000000000e+000
          2.000000000000e+000 2.000000000000e+001 0.000000000000e+000
          0.000000000000e+000 2.000000000000e+001 0.000000000000e+000
          4.000000000000e+000 0.000000000000e+000 0.000000000000e+000
          4.000000000000e+000 2.500000000000e+000 0.000000000000e+000
          4.000000000000e+000 5.000000000000e+000 0.000000000000e+000
          4.000000000000e+000 7.500000000000e+000 0.000000000000e+000
          4.000000000000e+000 1.000000000000e+001 0.000000000000e+000
          4.000000000000e+000 1.250000000000e+001 0.000000000000e+000
          4.000000000000e+000 1.500000000000e+001 0.000000000000e+000
          4.000000000000e+000 1.750000000000e+001 0.000000000000e+000
          4.000000000000e+000 2.000000000000e+001 0.000000000000e+000
          6.000000000000e+000 0.000000000000e+000 0.000000000000e+000
          6.000000000000e+000 2.500000000000e+000 0.000000000000e+000
          6.000000000000e+000 5.000000000000e+000 0.000000000000e+000
          6.000000000000e+000 7.500000000000e+000 0.000000000000e+000
          6.000000000000e+000 1.000000000000e+001 0.000000000000e+000
          6.000000000000e+000 1.250000000000e+001 0.000000000000e+000
          6.000000000000e+000 1.500000000000e+001 0.000000000000e+000
          6.000000000000e+000 1.750000000000e+001 0.000000000000e+000
          6.000000000000e+000 2.000000000000e+001 0.000000000000e+000
          8.000000000000e+000 0.000000000000e+000 0.000000000000e+000
          8.000000000000e+000 2.500000000000e+000 0.000000000000e+000
          8.000000000000e+000 5.000000000000e+000 0.000000000000e+000
          8.000000000000e+000 7.500000000000e+000 0.000000000000e+000
          8.000000000000e+000 1.000000000000e+001 0.000000000000e+000
          8.000000000000e+000 1.250000000000e+001 0.000000000000e+000
          8.000000000000e+000 1.500000000000e+001 0.000000000000e+000
          8.000000000000e+000 1.750000000000e+001 0.000000000000e+000
          8.000000000000e+000 2.000000000000e+001 0.000000000000e+000
          1.000000000000e+001 0.000000000000e+000 0.000000000000e+000
          1.000000000000e+001 2.500000000000e+000 0.000000000000e+000
          1.000000000000e+001 5.000000000000e+000 0.000000000000e+000
          1.000000000000e+001 7.500000000000e+000 0.000000000000e+000
          1.000000000000e+001 1.000000000000e+001 0.000000000000e+000
          1.000000000000e+001 1.250000000000e+001 0.000000000000e+000
          1.000000000000e+001 1.500000000000e+001 0.000000000000e+000
          1.000000000000e+001 1.750000000000e+001 0.000000000000e+000
          1.000000000000e+001 2.000000000000e+001 0.000000000000e+000
          1.200000000000e+001 0.000000000000e+000 0.000000000000e+000
          1.200000000000e+001 2.500000000000e+000 0.000000000000e+000
          1.200000000000e+001 5.000000000000e+000 0.000000000000e+000
          1.200000000000e+001 7.500000000000e+000 0.000000000000e+000
          1.200000000000e+001 1.000000000000e+001 0.000000000000e+000
          1.200000000000e+001 1.250000000000e+001 0.000000000000e+000
          1.200000000000e+001 1.500000000000e+001 0.000000000000e+000
          1.200000000000e+001 1.750000000000e+001 0.000000000000e+000
          1.200000000000e+001 2.000000000000e+001 0.000000000000e+000
          1.400000000000e+001 0.000000000000e+000 0.000000000000e+000
          1.400000000000e+001 2.500000000000e+000 0.000000000000e+000
          1.400000000000e+001 5.000000000000e+000 0.000000000000e+000
          1.400000000000e+001 7.500000000000e+000 0.000000000000e+000
          1.400000000000e+001 1.000000000000e+001 0.000000000000e+000
          1.400000000000e+001 1.250000000000e+001 0.000000000000e+000
          1.400000000000e+001 1.500000000000e+001 0.000000000000e+000
          1.400000000000e+001 1.750000000000e+001 0.000000000000e+000
          1.400000000000e+001 2.000000000000e+001 0.000000000000e+000
          1.600000000000e+001 0.000000000000e+000 0.000000000000e+000
          1.600000000000e+001 2.500000000000e+000 0.000000000000e+000
          1.600000000000e+001 5.000000000000e+000 0.000000000000e+000
          1.600000000000e+001 7.500000000000e+000 0.000000000000e+000
          1.600000000000e+001 1.000000000000e+001 0.000000000000e+000
          1.600000000000e+001 1.250000000000e+001 0.000000000000e+000
          1.600000000000e+001 1.500000000000e+001 0.000000000000e+000
          1.600000000000e+001 1.750000000000e+001 0.000000000000e+000
          1.600000000000e+001 2.000000000000e+001 0.000000000000e+000
          1.800000000000e+001 0.000000000000e+000 0.000000000000e+000
          1.800000000000e+001 2.500000000000e+000 0.000000000000e+000
          1.800000000000e+001 5.000000000000e+000 0.000000000000e+000
          1.800000000000e+001 7.500000000000e+000 0.000000000000e+000
          1.800000000000e+001 1.000000000000e+001 0.000000000000e+000
          1.800000000000e+001 1.250000000000e+001 0.000000000000e+000
          1.800000000000e+001 1.500000000000e+001 0.000000000000e+000
          1.800000000000e+001 1.750000000000e+001 0.000000000000e+000
          1.800000000000e+001 2.000000000000e+001 0.000000000000e+000
          2.000000000000e+001 0.000000000000e+000 0.000000000000e+000
          2.000000000000e+001 2.500000000000e+000 0.000000000000e+000
          2.000000000000e+001 5.000000000000e+000 0.000000000000e+000
          2.000000000000e+001 7.500000000000e+000 0.000000000000e+000
          2.000000000000e+001 1.000000000000e+001 0.000000000000e+000
          2.000000000000e+001 1.250000000000e+001 0.000000000000e+000
          2.000000000000e+001 1.500000000000e+001 0.000000000000e+000
          2.000000000000e+001 1.750000000000e+001 0.000000000000e+000
          2.000000000000e+001 2.000000000000e+001 0.000000000000e+000
          2.200000000000e+001 0.000000000000e+000 0.000000000000e+000
          2.200000000000e+001 2.500000000000e+000 0.000000000000e+000
          2.200000000000e+001 5.000000000000e+000 0.000000000000e+000
          2.200000000000e+001 7.500000000000e+000 0.000000000000e+000
          2.200000000000e+001 1.000000000000e+001 0.000000000000e+000
          2.200000000000e+001 1.250000000000e+001 0.000000000000e+000
          2.200000000000e+001 1.500000000000e+001 0.000000000000e+000
          2.200000000000e+001 1.750000000000e+001 0.000000000000e+000
          2.200000000000e+001 2.000000000000e+001 0.000000000000e+000
          2.400000000000e+001 0.000000000000e+000 0.000000000000e+000
          2.400000000000e+001 2.500000000000e+000 0.000000000000e+000
          2.400000000000e+001 5.000000000000e+000 0.000000000000e+000
          2.400000000000e+001 7.500000000000e+000 0.000000000000e+000
          2.400000000000e+001 1.000000000000e+001 0.000000000000e+000
          2.400000000000e+001 1.250000000000e+001 0.000000000000e+000
          2.400000000000e+001 1.500000000000e+001 0.000000000000e+000
          2.400000000000e+001 1.750000000000e+001 0.000000000000e+000
          2.400000000000e+001 2.000000000000e+001 0.000000000000e+000
          2.600000000000e+001 0.000000000000e+000 0.000000000000e+000
          2.600000000000e+001 2.500000000000e+000 0.000000000000e+000
          2.600000000000e+001 5.000000000000e+000 0.000000000000e+000
          2.600000000000e+001 7.500000000000e+000 0.000000000000e+000
          2.600000000000e+001 1.000000000000e+001 0.000000000000e+000
          2.600000000000e+001 1.250000000000e+001 0.000000000000e+000
          2.600000000000e+001 1.500000000000e+001 0.000000000000e+000
          2.600000000000e+001 1.750000000000e+001 0.000000000000e+000
          2.600000000000e+001 2.000000000000e+001 0.000000000000e+000
          2.800000000000e+001 0.000000000000e+000 0.000000000000e+000
          2.800000000000e+001 2.500000000000e+000 0.000000000000e+000
          2.800000000000e+001 5.000000000000e+000 0.000000000000e+000
          2.800000000000e+001 7.500000000000e+000 0.000000000000e+000
          2.800000000000e+001 1.000000000000e+001 0.000000000000e+000
          2.800000000000e+001 1.250000000000e+001 0.000000000000e+000
          2.800000000000e+001 1.500000000000e+001 0.000000000000e+000
          2.800000000000e+001 1.750000000000e+001 0.000000000000e+000
          2.800000000000e+001 2.000000000000e+001 0.000000000000e+000
          3.000000000000e+001 0.000000000000e+000 0.000000000000e+000
          3.000000000000e+001 2.500000000000e+000 0.000000000000e+000
          3.000000000000e+001 5.000000000000e+000 0.000000000000e+000
          3.000000000000e+001 7.500000000000e+000 0.000000000000e+000
[...]
      <PointData Scalars="LIQUID_PRESSURE">
        <DataArray type="Float64" Name="LIQUID_PRESSURE" format="ascii">
          1.128918250310e+006 1.128924009412e+006 1.128924009429e+006 1.128918250204e+006 1.128924009458e+006 1.128918250132e+006 1.128924009417e+006 1.128918250237e+006 1.128924009442e+006 1.128918250210e+006 1.128924009488e+006 1.128918250061e+006 1.128924009465e+006 1.128918250029e+006 1.128924009480e+006 1.128918249966e+006 1.128924009515e+006 1.128918249882e+006 1.128863794662e+006 1.128863794714e+006 1.128863794744e+006 1.128863794686e+006 1.128863794700e+006 1.128863794769e+006 1.128863794745e+006 1.128863794772e+006 1.128863794817e+006 1.128741538789e+006 1.128741538826e+006 1.128741538848e+006 1.128741538805e+006 1.128741538815e+006 1.128741538851e+006 1.128741538832e+006 1.128741538840e+006 1.128741538862e+006 1.128649205130e+006 1.128649205151e+006 1.128649205170e+006 1.128649205136e+006 1.128649205135e+006 1.128649205153e+006 1.128649205138e+006 1.128649205133e+006 1.128649205147e+006 1.128456174346e+006 1.128456174362e+006 1.128456174369e+006 1.128456174355e+006 1.128456174344e+006 1.128456174362e+006 1.128456174350e+006 1.128456174344e+006 1.128456174352e+006 1.128240539988e+006 1.128240539998e+006 1.128240540004e+006 1.128240539994e+006 1.128240539992e+006 1.128240539997e+006 1.128240539993e+006 1.128240539991e+006 1.128240539992e+006 1.128028652971e+006 1.128028652974e+006 1.128028652979e+006 1.128028652971e+006 1.128028652975e+006 1.128028652973e+006 1.128028652973e+006 1.128028652971e+006 1.128028652972e+006 1.127713971451e+006 1.127713971449e+006 1.127713971452e+006 1.127713971448e+006 1.127713971449e+006 1.127713971451e+006 1.127713971451e+006 1.127713971453e+006 1.127713971448e+006 1.127418495230e+006 1.127418495229e+006 1.127418495230e+006 1.127418495229e+006 1.127418495228e+006 1.127418495228e+006 1.127418495228e+006 1.127418495228e+006 1.127418495229e+006 1.127059429381e+006 1.127059429385e+006 1.127059429385e+006 1.127059429383e+006 1.127059429384e+006 1.127059429383e+006 1.127059429383e+006 1.127059429384e+006 1.127059429384e+006 1.126653454228e+006 1.126653454231e+006 1.126653454229e+006 1.126653454230e+006 1.126653454227e+006 1.126653454227e+006 1.126653454233e+006 1.126653454230e+006 1.126653454233e+006 1.126238228856e+006 1.126238228855e+006 1.126238228856e+006 1.126238228856e+006 1.126238228855e+006 1.126238228858e+006 1.126238228854e+006 1.126238228856e+006 1.126238228856e+006 1.125750728950e+006 1.125750728949e+006 1.125750728952e+006 1.125750728952e+006 1.125750728954e+006 1.125750728952e+006 1.125750728951e+006 1.125750728950e+006 1.125750728950e+006 1.125267854977e+006 1.125267854981e+006 1.125267854978e+006 1.125267854981e+006 1.125267854979e+006 1.125267854980e+006 1.125267854981e+006 1.125267854981e+006 1.125267854979e+006 1.124715618397e+006 1.124715618396e+006 1.124715618398e+006 1.124715618396e+006 1.124715618398e+006 1.124715618396e+006 1.124715618397e+006 1.124715618396e+006 1.124715618396e+006 1.124143480311e+006 1.124143480308e+006 1.124143480308e+006 1.124143480309e+006 1.124143480306e+006 1.124143480310e+006 1.124143480308e+006 1.124143480309e+006 1.124143480307e+006 1.123533476873e+006 1.123533476874e+006 1.123533476873e+006 1.123533476874e+006 1.123533476873e+006 1.123533476873e+006 1.123533476874e+006 1.123533476875e+006 1.123533476874e+006 1.122860481703e+006 1.122860481703e+006 1.122860481703e+006 1.122860481702e+006 1.122860481704e+006 1.122860481704e+006 1.122860481703e+006 1.122860481703e+006 1.122860481705e+006 1.122195441555e+006 1.122195441554e+006 1.122195441554e+006 1.122195441554e+006 1.122195441554e+006 1.122195441554e+006 1.122195441554e+006 1.122195441553e+006 1.122195441555e+006 1.121452767055e+006 1.121452767053e+006 1.121452767055e+006 1.121452767054e+006 1.121452767054e+006 1.121452767055e+006 1.121452767054e+006 1.121452767054e+006 1.121452767053e+006 1.120699894869e+006 1.120699894869e+006 1.120699894870e+006 1.120699894868e+006 1.120699894869e+006 1.120699894868e+006 1.120699894868e+006 1.120699894869e+006 1.120699894867e+006 1.119901808347e+006 1.119901808345e+006 1.119901808346e+006 1.119901808348e+006 1.119901808347e+006 1.119901808347e+006 1.119901808347e+006 1.119901808347e+006 1.119901808347e+006 1.119067750585e+006 1.119067750586e+006 1.119067750585e+006 1.119067750586e+006 1.119067750585e+006 1.119067750586e+006 1.119067750585e+006 1.119067750586e+006 1.119067750586e+006 1.118202880678e+006 1.118202880677e+006 1.118202880677e+006 1.118202880676e+006 1.118202880678e+006 1.118202880676e+006 1.118202880678e+006 1.118202880677e+006 1.118202880677e+006 1.117280094305e+006 1.117280094305e+006 1.117280094305e+006 1.117280094306e+006 1.117280094305e+006 1.117280094305e+006 1.117280094305e+006 1.117280094305e+006 1.117280094304e+006 1.116350654738e+006 1.116350654737e+006 1.116350654737e+006 1.116350654738e+006 1.116350654738e+006 1.116350654737e+006 1.116350654737e+006 1.116350654738e+006 1.116350654737e+006 1.115362293202e+006 1.115362293203e+006 1.115362293203e+006 1.115362293203e+006 1.115362293203e+006 1.115362293203e+006 1.115362293203e+006 1.115362293203e+006 1.115362293204e+006 1.114347787441e+006 1.114347787442e+006 1.114347787441e+006 1.114347787441e+006 1.114347787441e+006 1.114347787441e+006 1.114347787441e+006 1.114347787441e+006 1.114347787441e+006 1.113312329054e+006 1.113312329053e+006 1.113312329054e+006 1.113312329054e+006 1.113312329054e+006 1.113312329053e+006 1.113312329054e+006 1.113312329053e+006 1.113312329053e+006 1.112207599966e+006 1.112207599966e+006 1.112207599966e+006 1.112207599965e+006 1.112207599966e+006 1.112207599966e+006 1.112207599966e+006 1.112207599966e+006 1.112207599966e+006 1.111099622385e+006 1.111099622385e+006 1.111099622385e+006 1.111099622385e+006 1.111099622384e+006 1.111099622385e+006 1.111099622385e+006 1.111099622385e+006 1.111099622385e+006 1.109939456069e+006 1.109939456069e+006 1.109939456069e+006 1.109939456069e+006 1.109939456069e+006 1.109939456069e+006 1.109939456069e+006 1.109939456069e+006 1.109939456069e+006 1.108733430645e+006 1.108733430645e+006 1.108733430645e+006 1.108733430645e+006 1.108733430645e+006 1.108733430645e+006 1.108733430645e+006 1.108733430646e+006 1.108733430645e+006 1.107522830767e+006 1.107522830767e+006 1.107522830767e+006 1.107522830767e+006 1.107522830767e+006 1.107522830768e+006 1.107522830767e+006 1.107522830767e+006 1.107522830767e+006 1.106246637186e+006 1.106246637187e+006 1.106246637187e+006 1.106246637187e+006 1.106246637186e+006 1.106246637186e+006 1.106246637186e+006 1.106246637186e+006 1.106246637186e+006 1.104948887394e+006 1.104948887394e+006 1.104948887394e+006 1.104948887394e+006 1.104948887394e+006 1.104948887394e+006 1.104948887393e+006 1.104948887394e+006 1.104948887393e+006 1.103627380653e+006 1.103627380653e+006 1.103627380653e+006 1.103627380652e+006 1.103627380653e+006 1.103627380653e+006 1.103627380653e+006 1.103627380653e+006 1.103627380653e+006 1.102250767580e+006 1.102250767580e+006 1.102250767580e+006 1.102250767580e+006 1.102250767580e+006 1.102250767580e+006 1.102250767580e+006 1.102250767580e+006 1.102250767580e+006 1.100853248140e+006 1.100853248140e+006 1.100853248140e+006 1.100853248140e+006 1.100853248139e+006 1.100853248140e+006 1.100853248139e+006 1.100853248140e+006 1.100853248139e+006 1.099431244113e+006 1.099431244113e+006 1.099431244113e+006 1.099431244113e+006 1.099431244113e+006 1.099431244114e+006 1.099431244113e+006 1.099431244113e+006 1.099431244114e+006 1.097940077514e+006 1.097940077514e+006 1.097940077513e+006 1.097940077514e+006 1.097940077514e+006 1.097940077514e+006 1.097940077514e+006 1.097940077514e+006 1.097940077514e+006 1.096441729476e+006 1.096441729476e+006 1.096441729476e+006 1.096441729475e+006 1.096441729476e+006 1.096441729476e+006 1.096441729475e+006 1.096441729476e+006 1.096441729476e+006 1.094909305708e+006 1.094909305708e+006 1.094909305708e+006 1.094909305708e+006 1.094909305708e+006 1.094909305708e+006 1.094909305708e+006 1.094909305708e+006 1.094909305708e+006 1.093345513108e+006 1.093345513109e+006 1.093345513109e+006 1.093345513109e+006 1.093345513109e+006 1.093345513109e+006 1.093345513109e+006 1.093345513109e+006 1.093345513109e+006 1.091748342507e+006 1.091748342507e+006 1.091748342507e+006 1.091748342507e+006 1.091748342507e+006 1.091748342507e+006 1.091748342507e+006 1.091748342507e+006 1.091748342507e+006 1.090088716717e+006 1.090088716717e+006 1.090088716717e+006 1.090088716717e+006 1.090088716716e+006 1.090088716716e+006 1.090088716717e+006 1.090088716717e+006 1.090088716716e+006 1.088411499365e+006 1.088411499365e+006 1.088411499365e+006 1.088411499365e+006 1.088411499365e+006 1.088411499365e+006 1.088411499365e+006 1.088411499365e+006 1.088411499365e+006 1.086752861225e+006 1.086752861225e+006 1.086752861224e+006 1.086752861224e+006 1.086752861224e+006 1.086752861225e+006 1.086752861224e+006 1.086752861224e+006 1.086752861225e+006 1.085010804751e+006 1.085010804751e+006 1.085010804751e+006 1.085010804751e+006 1.085010804751e+006 1.085010804751e+006 1.085010804751e+006 1.085010804750e+006 1.085010804751e+006 1.083234054712e+006 1.083234054712e+006 1.083234054711e+006 1.083234054711e+006 1.083234054712e+006 1.083234054712e+006 1.083234054711e+006 1.083234054712e+006 1.083234054711e+006 1.081422151949e+006 1.081422151948e+006 1.081422151949e+006 1.081422151949e+006 1.081422151949e+006 1.081422151949e+006 1.081422151949e+006 1.081422151949e+006 1.081422151948e+006 1.079581486694e+006 1.079581486694e+006 1.079581486694e+006 1.079581486694e+006 1.079581486694e+006 1.079581486694e+006 1.079581486694e+006 1.079581486694e+006 1.079581486694e+006 1.077760283062e+006 1.077760283061e+006 1.077760283061e+006 1.077760283062e+006 1.077760283062e+006 1.077760283062e+006 1.077760283062e+006 1.077760283062e+006 1.077760283062e+006 1.075914582243e+006 1.075914582242e+006 1.075914582242e+006 1.075914582242e+006 1.075914582242e+006 1.075914582242e+006 1.075914582242e+006 1.075914582243e+006 1.075914582243e+006 1.074015289362e+006 1.074015289362e+006 1.074015289362e+006 1.074015289362e+006 1.074015289363e+006 1.074015289363e+006 1.074015289362e+006 1.074015289363e+006 1.074015289362e+006 1.072055648394e+006 1.072055648395e+006 1.072055648395e+006 1.072055648394e+006 1.072055648395e+006 1.072055648395e+006 1.072055648395e+006 1.072055648395e+006 1.072055648395e+006 1.070073556794e+006 1.070073556794e+006 1.070073556794e+006 1.070073556794e+006 1.070073556794e+006 1.070073556794e+006 1.070073556794e+006 1.070073556794e+006 1.070073556794e+006 1.068042653681e+006 1.068042653680e+006 1.068042653682e+006 1.068042653681e+006 1.068042653680e+006 1.068042653681e+006 1.068042653681e+006 1.068042653682e+006 1.068042653681e+006 1.065985022527e+006 1.065985022527e+006 1.065985022527e+006 1.065985022527e+006 1.065985022526e+006 1.065985022526e+006 1.065985022526e+006 1.065985022526e+006 1.065985022526e+006 1.063994310032e+006 1.063994310032e+006 1.063994310031e+006 1.063994310030e+006 1.063994310029e+006 1.063994310029e+006 1.063994310029e+006 1.063994310029e+006 1.063994310029e+006 1.062060425788e+006 1.062060425787e+006 1.062060425787e+006 1.062060425785e+006 1.062060425784e+006 1.062060425783e+006 1.062060425782e+006 1.062060425782e+006 1.062060425782e+006 1.059938341874e+006 1.059938341874e+006 1.059938341872e+006 1.059938341869e+006 1.059938341867e+006 1.059938341865e+006 1.059938341864e+006 1.059938341863e+006 1.059938341862e+006 1.057761530984e+006 1.057761530983e+006 1.057761530981e+006 1.057761530977e+006 1.057761530973e+006 1.057761530970e+006 1.057761530967e+006 1.057761530966e+006 1.057761530965e+006 1.055825790904e+006 1.055825790903e+006 1.055825790900e+006 1.055825790896e+006 1.055825790892e+006 1.055825790888e+006 1.055825790886e+006 1.055825790884e+006 1.055825790883e+006 1.053570331727e+006 1.053570331727e+006 1.053570331727e+006 1.053570331730e+006 1.053570331732e+006 1.053570331732e+006 1.053570331731e+006 1.053570331730e+006 1.053570331730e+006 1.051681059263e+006 1.051681059264e+006 1.051681059267e+006 1.051681059269e+006 1.051681059273e+006 1.051681059275e+006 1.051681059275e+006 1.051681059276e+006 1.051681059276e+006 1.049545937269e+006 1.049545937269e+006 1.049545937273e+006 1.049545937280e+006 1.049545937287e+006 1.049545937290e+006 1.049545937292e+006 1.049545937293e+006 1.049545937293e+006 1.047709374357e+006 1.047709374358e+006 1.047709374361e+006 1.047709374366e+006 1.047709374370e+006 1.047709374374e+006 1.047709374377e+006 1.047709374378e+006 1.047709374379e+006 1.046217883014e+006 1.046217883015e+006 1.046217883017e+006 1.046217883021e+006 1.046217883024e+006 1.046217883027e+006 1.046217883029e+006 1.046217883030e+006 1.046217883030e+006 1.044726448380e+006 1.044726448380e+006 1.044726448382e+006 1.044726448384e+006 1.044726448387e+006 1.044726448389e+006 1.044726448390e+006 1.044726448391e+006 1.044726448391e+006 1.043235067803e+006 1.043235067804e+006 1.043235067805e+006 1.043235067806e+006 1.043235067808e+006 1.043235067810e+006 1.043235067811e+006 1.043235067812e+006 1.043235067812e+006 1.041743738816e+006 1.041743738816e+006 1.041743738817e+006 1.041743738818e+006 1.041743738819e+006 1.041743738820e+006 1.041743738821e+006 1.041743738821e+006 1.041743738822e+006 1.040252459161e+006 1.040252459162e+006 1.040252459162e+006 1.040252459163e+006 1.040252459164e+006 1.040252459165e+006 1.040252459165e+006 1.040252459165e+006 1.040252459166e+006 1.038761226781e+006 1.038761226781e+006 1.038761226781e+006 1.038761226782e+006 1.038761226783e+006 1.038761226783e+006 1.038761226783e+006 1.038761226784e+006 1.038761226784e+006 1.037270039761e+006 1.037270039761e+006 1.037270039762e+006 1.037270039762e+006 1.037270039762e+006 1.037270039763e+006 1.037270039763e+006 1.037270039763e+006 1.037270039763e+006 1.035778896294e+006 1.035778896294e+006 1.035778896294e+006 1.035778896294e+006 1.035778896295e+006 1.035778896295e+006 1.035778896295e+006 1.035778896295e+006 1.035778896295e+006 1.034287794634e+006 1.034287794634e+006 1.034287794634e+006 1.034287794634e+006 1.034287794634e+006 1.034287794634e+006 1.034287794635e+006 1.034287794635e+006 1.034287794635e+006 1.032796733070e+006 1.032796733070e+006 1.032796733069e+006 1.032796733070e+006 1.032796733070e+006 1.032796733070e+006 1.032796733070e+006 1.032796733070e+006 1.032796733070e+006 1.031305709902e+006 1.031305709902e+006 1.031305709902e+006 1.031305709902e+006 1.031305709902e+006 1.031305709902e+006 1.031305709902e+006 1.031305709902e+006 1.031305709902e+006 1.029814723432e+006 1.029814723432e+006 1.029814723432e+006 1.029814723432e+006 1.029814723432e+006 1.029814723432e+006 1.029814723432e+006 1.029814723432e+006 1.029814723432e+006 1.028323771951e+006 1.028323771951e+006 1.028323771951e+006 1.028323771951e+006 1.028323771951e+006 1.028323771951e+006 1.028323771951e+006 1.028323771951e+006 1.028323771951e+006 1.026832853740e+006 1.026832853740e+006 1.026832853740e+006 1.026832853740e+006 1.026832853740e+006 1.026832853740e+006 1.026832853740e+006 1.026832853740e+006 1.026832853740e+006 1.025341967066e+006 1.025341967066e+006 1.025341967066e+006 1.025341967066e+006 1.025341967066e+006 1.025341967066e+006 1.025341967066e+006 1.025341967066e+006 1.025341967066e+006 1.023851110183e+006 1.023851110183e+006 1.023851110183e+006 1.023851110183e+006 1.023851110183e+006 1.023851110183e+006 1.023851110183e+006 1.023851110183e+006 1.023851110183e+006 1.022360281336e+006 1.022360281337e+006 1.022360281337e+006 1.022360281337e+006 1.022360281336e+006 1.022360281337e+006 1.022360281337e+006 1.022360281337e+006 1.022360281337e+006 1.020869478761e+006 1.020869478761e+006 1.020869478761e+006 1.020869478761e+006 1.020869478761e+006 1.020869478761e+006 1.020869478761e+006 1.020869478761e+006 1.020869478761e+006 1.019378700683e+006 1.019378700683e+006 1.019378700683e+006 1.019378700683e+006 1.019378700683e+006 1.019378700683e+006 1.019378700683e+006 1.019378700683e+006 1.019378700683e+006 1.017887945324e+006 1.017887945324e+006 1.017887945324e+006 1.017887945324e+006 1.017887945324e+006 1.017887945324e+006 1.017887945324e+006 1.017887945324e+006 1.017887945324e+006 1.016397210899e+006 1.016397210899e+006 1.016397210899e+006 1.016397210899e+006 1.016397210899e+006 1.016397210899e+006 1.016397210899e+006 1.016397210899e+006 1.016397210899e+006 1.014906495619e+006 1.014906495619e+006 1.014906495619e+006 1.014906495619e+006 1.014906495619e+006 1.014906495619e+006 1.014906495619e+006 1.014906495619e+006 1.014906495619e+006 1.013415797691e+006 1.013415797691e+006 1.013415797691e+006 1.013415797691e+006 1.013415797691e+006 1.013415797691e+006 1.013415797691e+006 1.013415797691e+006 1.013415797691e+006 1.011925115319e+006 1.011925115319e+006 1.011925115319e+006 1.011925115319e+006 1.011925115319e+006 1.011925115319e+006 1.011925115319e+006 1.011925115319e+006 1.011925115319e+006 1.010434446704e+006 1.010434446704e+006 1.010434446704e+006 1.010434446704e+006 1.010434446704e+006 1.010434446704e+006 1.010434446704e+006 1.010434446704e+006 1.010434446704e+006 1.008943790045e+006 1.008943790045e+006 1.008943790045e+006 1.008943790045e+006 1.008943790045e+006 1.008943790045e+006 1.008943790045e+006 1.008943790045e+006 1.008943790045e+006 1.007453143537e+006 1.007453143537e+006 1.007453143537e+006 1.007453143537e+006 1.007453143537e+006 1.007453143537e+006 1.007453143537e+006 1.007453143537e+006 1.007453143537e+006 1.005962505374e+006 1.005962505374e+006 1.005962505374e+006 1.005962505374e+006 1.005962505374e+006 1.005962505374e+006 1.005962505374e+006 1.005962505374e+006 1.005962505374e+006 1.004471873749e+006 1.004471873749e+006 1.004471873749e+006 1.004471873749e+006 1.004471873749e+006 1.004471873749e+006 1.004471873749e+006 1.004471873749e+006 1.004471873749e+006 1.002981246852e+006 1.002981246852e+006 1.002981246852e+006 1.002981246852e+006 1.002981246852e+006 1.002981246852e+006 1.002981246852e+006 1.002981246852e+006 1.002981246852e+006 1.001490622873e+006 1.001490622873e+006 1.001490622873e+006 1.001490622873e+006 1.001490622873e+006 1.001490622873e+006 1.001490622873e+006 1.001490622873e+006 1.001490622873e+006 1.000000000000e+006 1.000000000000e+006 1.000000000000e+006 1.000000000000e+006 1.000000000000e+006 1.000000000000e+006 1.000000000000e+006 1.000000000000e+006 1.000000000000e+006 
        </DataArray>
        <DataArray type="Float64" Name="MOLAR_FRACTION" format="ascii">