<?xml version="1.0"?>
<VTKFile type="UnstructuredGrid" version="0.1" byte_order="LittleEndian">
  <UnstructuredGrid>
    <Piece NumberOfPoints="909" NumberOfCells="800">
      <Points>
        <DataArray type="Float64" NumberOfComponents="3" format="ascii">
          0.000000000000e+000 0.000000000000e+000 0.000000000000e+000
          2.000000000000e+000 0.000000000000e+000 0.000000000000e+000
          2.000000000000e+000 2.500000000000e+000 0.000000000000e+000
          0.000000000000e+000 2.500000000000e+000 0.000000000000e+000
          2.000000000000e+000 5.000000000000e+000 0.000000000000e+000
          0.000000000000e+000 5.000000000000e+000 0.000000000000e+000
          2.000000000000e+000 7.500000000000e+000 0.000000000000e+000
          0.000000000000e+000 7.500000000000e+000 0.000000000000e+000
          2.000000000000e+000 1.000000000000e+001 0.000000000000e+000
          0.000000000000e+000 1.000000000000e+001 0.000000000000e+000
          2.000000000000e+000 1.250000000000e+001 0.000000000000e+000
          0.000000000000e+000 1.250000000000e+001 0.000000000000e+000
          2.000000000000e+000 1.500000000000e+001 0.000000000000e+000
          0.000000000000e+000 1.500000000000e+001 0.000000000000e+000
          2.000000000000e+000 1.750000000000e+001 0.000000000000e+000
          0.000000000000e+000 1.750000000000e+001 0.000000000000e+000
          2.000000000000e+000 2.000000000000e+001 0.000000000000e+000
          0.000000000000e+000 2.000000000000e+001 0.000000000000e+000
          4.000000000000e+000 0.000000000000e+000 0.000000000000e+000
          4.000000000000e+000 2.500000000000e+000 0.000000000000e+000
          4.000000000000e+000 5.000000000000e+000 0.000000000000e+000
          4.000000000000e+000 7.500000000000e+000 0.000000000000e+000
          4.000000000000e+000 1.000000000000e+001 0.000000000000e+000
          4.000000000000e+000 1.250000000000e+001 0.000000000000e+000
          4.000000000000e+000 1.500000000000e+001 0.000000000000e+000
          4.000000000000e+000 1.750000000000e+001 0.000000000000e+000
          4.000000000000e+000 2.000000000000e+001 0.000000000000e+000
          6.000000000000e+000 0.000000000000e+000 0.000000000000e+000
          6.000000000000e+000 2.500000000000e+000 0.000000000000e+000
          6.000000000000e+000 5.000000000000e+000 0.000000000000e+000
          6.000000000000e+000 7.500000000000e+000 0.000000000000e+000
          6.000000000000e+000 1.000000000000e+001 0.000000000000e+000
          6.000000000000e+000 1.250000000000e+001 0.000000000000e+000
          6.000000000000e+000 1.500000000000e+001 0.000000000000e+000
          6.000000000000e+000 1.750000000000e+001 0.000000000000e+000
          6.000000000000e+000 2.000000000000e+001 0.000000000000e+000
          8.000000000000e+000 0.000000000000e+000 0.000000000000e+000
          8.000000000000e+000 2.500000000000e+000 0.000000000000e+000
          8.000000000000e+000 5.000000000000e+000 0.000000000000e+000
          8.000000000000e+000 7.500000000000e+000 0.000000000000e+000
          8.000000000000e+000 1.000000000000e+001 0.000000000000e+000
          8.000000000000e+000 1.250000000000e+001 0.000000000000e+000
          8.000000000000e+000 1.500000000000e+001 0.000000000000e+000
          8.000000000000e+000 1.750000000000e+001 0.000000000000e+000
          8.000000000000e+000 2.000000000000e+001 0.000000000000e+000
          1.000000000000e+001 0.000000000000e+000 0.000000000000e+000
          1.000000000000e+001 2.500000000000e+000 0.000000000000e+000
          1.000000000000e+001 5.000000000000e+000 0.000000000000e+000
          1.000000000000e+001 7.500000000000e+000 0.000000000000e+000
          1.000000000000e+001 1.000000000000e+001 0.000000000000e+000
          1.000000000000e+001 1.250000000000e+001 0.000000000000e+000
          1.000000000000e+001 1.500000000000e+001 0.000000000000e+000
          1.000000000000e+001 1.750000000000e+001 0.000000000000e+000
          1.000000000000e+001 2.000000000000e+001 0.000000000000e+000
          1.200000000000e+001 0.000000000000e+000 0.000000000000e+000
          1.200000000000e+001 2.500000000000e+000 0.000000000000e+000
          1.200000000000e+001 5.000000000000e+000 0.000000000000e+000
          1.200000000000e+001 7.500000000000e+000 0.000000000000e+000
          1.200000000000e+001 1.000000000000e+001 0.000000000000e+000
          1.200000000000e+001 1.250000000000e+001 0.000000000000e+000
          1.200000000000e+001 1.500000000000e+001 0.000000000000e+000
          1.200000000000e+001 1.750000000000e+001 0.000000000000e+000
          1.200000000000e+001 2.000000000000e+001 0.000000000000e+000
          1.400000000000e+001 0.000000000000e+000 0.000000000000e+000
          1.400000000000e+001 2.500000000000e+000 0.000000000000e+000
          1.400000000000e+001 5.000000000000e+000 0.000000000000e+000
          1.400000000000e+001 7.500000000000e+000 0.000000000000e+000
          1.400000000000e+001 1.000000000000e+001 0.000000000000e+000
          1.400000000000e+001 1.250000000000e+001 0.000000000000e+000
          1.400000000000e+001 1.500000000000e+001 0.000000000000e+000
          1.400000000000e+001 1.750000000000e+001 0.000000000000e+000
          1.400000000000e+001 2.000000000000e+001 0.000000000000e+000
          1.600000000000e+001 0.000000000000e+000 0.000000000000e+000
          1.600000000000e+001 2.500000000000e+000 0.000000000000e+000
          1.600000000000e+001 5.000000000000e+000 0.000000000000e+000
          1.600000000000e+001 7.500000000000e+000 0.000000000000e+000
          1.600000000000e+001 1.000000000000e+001 0.000000000000e+000
          1.600000000000e+001 1.250000000000e+001 0.000000000000e+000
          1.600000000000e+001 1.500000000000e+001 0.000000000000e+000
          1.600000000000e+001 1.750000000000e+001 0.000000000000e+000
          1.600000000000e+001 2.000000000000e+001 0.000000000000e+000
          1.800000000000e+001 0.000000000000e+000 0.000000000000e+000
          1.800000000000e+001 2.500000000000e+000 0.000000000000e+000
          1.800000000000e+001 5.000000000000e+000 0.000000000000e+000
          1.800000000000e+001 7.500000000000e+000 0.000000000000e+000
          1.800000000000e+001 1.000000000000e+001 0.000000000000e+000
          1.800000000000e+001 1.250000000000e+001 0.000000000000e+000
          1.800000000000e+001 1.500000000000e+001 0.000000000000e+000
          1.800000000000e+001 1.750000000000e+001 0.000000000000e+000
          1.800000000000e+001 2.000000000000e+001 0.000000000000e+000
          2.000000000000e+001 0.000000000000e+000 0.000000000000e+000
          2.000000000000e+001 2.500000000000e+000 0.000000000000e+000
          2.000000000000e+001 5.000000000000e+000 0.000000000000e+000
          2.000000000000e+001 7.500000000000e+000 0.000000000000e+000
          2.000000000000e+001 1.000000000000e+001 0.000000000000e+000
          2.000000000000e+001 1.250000000000e+001 0.000000000000e+000
          2.000000000000e+001 1.500000000000e+001 0.000000000000e+000
          2.000000000000e+001 1.750000000000e+001 0.000000000000e+000
          2.000000000000e+001 2.000000000000e+001 0.000000000000e+000
          2.200000000000e+001 0.000000000000e+000 0.000000000000e+000
          2.200000000000e+001 2.500000000000e+000 0.000000000000e+000
          2.200000000000e+001 5.000000000000e+000 0.000000000000e+000
          2.200000000000e+001 7.500000000000e+000 0.000000000000e+000
          2.200000000000e+001 1.000000000000e+001 0.000000000000e+000
          2.200000000000e+001 1.250000000000e+001 0.000000000000e+000
          2.200000000000e+001 1.500000000000e+001 0.000000000000e+000
          2.200000000000e+001 1.750000000000e+001 0.000000000000e+000
          2.200000000000e+001 2.000000000000e+001 0.000000000000e+000
          2.400000000000e+001 0.000000000000e+000 0.000000000000e+000
          2.400000000000e+001 2.500000000000e+000 0.000000000000e+000
          2.400000000000e+001 5.000000000000e+000 0.000000000000e+000
          2.400000000000e+001 7.500000000000e+000 0.000000000000e+000
          2.400000000000e+001 1.000000000000e+001 0.000000000000e+000
          2.400000000000e+001 1.250000000000e+001 0.000000000000e+000
          2.400000000000e+001 1.500000000000e+001 0.000000000000e+000
          2.400000000000e+001 1.750000000000e+001 0.000000000000e+000
          2.400000000000e+001 2.000000000000e+001 0.000000000000e+000
          2.600000000000e+001 0.000000000000e+000 0.000000000000e+000
          2.600000000000e+001 2.500000000000e+000 0.000000000000e+000
          2.600000000000e+001 5.000000000000e+000 0.000000000000e+000
          2.600000000000e+001 7.500000000000e+000 0.000000000000e+000
          2.600000000000e+001 1.000000000000e+001 0.000000000000e+000
          2.600000000000e+001 1.250000000000e+001 0.000000000000e+000
          2.600000000000e+001 1.500000000000e+001 0.000000000000e+000
          2.600000000000e+001 1.750000000000e+001 0.000000000000e+000
          2.600000000000e+001 2.000000000000e+001 0.000000000000e+000
          2.800000000000e+001 0.000000000000e+000 0.000000000000e+000
          2.800000000000e+001 2.500000000000e+000 0.000000000000e+000
          2.800000000000e+001 5.000000000000e+000 0.000000000000e+000
          2.800000000000e+001 7.500000000000e+000 0.000000000000e+000
          2.800000000000e+001 1.000000000000e+001 0.000000000000e+000
          2.800000000000e+001 1.250000000000e+001 0.000000000000e+000
          2.800000000000e+001 1.500000000000e+001 0.000000000000e+000
          2.800000000000e+001 1.750000000000e+001 0.000000000000e+000
          2.800000000000e+001 2.000000000000e+001 0.000000000000e+000
          3.000000000000e+001 0.000000000000e+000 0.000000000000e+000
          3.000000000000e+001 2.500000000000e+000 0.000000000000e+000
          3.000000000000e+001 5.000000000000e+000 0.000000000000e+000
          3.000000000000e+001 7.500000000000e+000 0.000000000000e+000
[...]
      <PointData Scalars="LIQUID_PRESSURE">
        <DataArray type="Float64" Name="LIQUID_PRESSURE" format="ascii">
          1.055485682669e+006 1.055494153076e+006 1.055494153090e+006 1.055485682583e+006 1.055494153116e+006 1.055485682525e+006 1.055494153081e+006 1.055485682615e+006 1.055494153101e+006 1.055485682593e+006 1.055494153144e+006 1.055485682475e+006 1.055494153131e+006 1.055485682469e+006 1.055494153148e+006 1.055485682427e+006 1.055494153178e+006 1.055485682357e+006 1.055464286262e+006 1.055464286299e+006 1.055464286319e+006 1.055464286276e+006 1.055464286283e+006 1.055464286332e+006 1.055464286308e+006 1.055464286326e+006 1.055464286359e+006 1.055387969832e+006 1.055387969857e+006 1.055387969870e+006 1.055387969840e+006 1.055387969847e+006 1.055387969868e+006 1.055387969848e+006 1.055387969852e+006 1.055387969866e+006 1.055351267958e+006 1.055351267970e+006 1.055351267983e+006 1.055351267959e+006 1.055351267959e+006 1.055351267970e+006 1.055351267957e+006 1.055351267951e+006 1.055351267962e+006 1.055242956842e+006 1.055242956853e+006 1.055242956856e+006 1.055242956848e+006 1.055242956841e+006 1.055242956856e+006 1.055242956845e+006 1.055242956841e+006 1.055242956848e+006 1.055122478329e+006 1.055122478335e+006 1.055122478339e+006 1.055122478333e+006 1.055122478333e+006 1.055122478337e+006 1.055122478335e+006 1.055122478334e+006 1.055122478335e+006 1.055022080467e+006 1.055022080469e+006 1.055022080472e+006 1.055022080467e+006 1.055022080471e+006 1.055022080470e+006 1.055022080470e+006 1.055022080469e+006 1.055022080470e+006 1.054841571607e+006 1.054841571605e+006 1.054841571607e+006 1.054841571605e+006 1.054841571606e+006 1.054841571608e+006 1.054841571608e+006 1.054841571610e+006 1.054841571605e+006 1.054692267081e+006 1.054692267080e+006 1.054692267081e+006 1.054692267081e+006 1.054692267080e+006 1.054692267080e+006 1.054692267080e+006 1.054692267080e+006 1.054692267081e+006 1.054502611808e+006 1.054502611811e+006 1.054502611811e+006 1.054502611810e+006 1.054502611811e+006 1.054502611810e+006 1.054502611810e+006 1.054502611810e+006 1.054502611810e+006 1.054283541108e+006 1.054283541111e+006 1.054283541109e+006 1.054283541110e+006 1.054283541108e+006 1.054283541108e+006 1.054283541112e+006 1.054283541109e+006 1.054283541112e+006 1.054073986676e+006 1.054073986675e+006 1.054073986676e+006 1.054073986676e+006 1.054073986675e+006 1.054073986677e+006 1.054073986675e+006 1.054073986676e+006 1.054073986676e+006 1.053808504533e+006 1.053808504532e+006 1.053808504533e+006 1.053808504533e+006 1.053808504534e+006 1.053808504533e+006 1.053808504532e+006 1.053808504532e+006 1.053808504532e+006 1.053562771671e+006 1.053562771674e+006 1.053562771671e+006 1.053562771673e+006 1.053562771672e+006 1.053562771672e+006 1.053562771673e+006 1.053562771674e+006 1.053562771672e+006 1.053269070453e+006 1.053269070452e+006 1.053269070454e+006 1.053269070452e+006 1.053269070454e+006 1.053269070452e+006 1.053269070453e+006 1.053269070452e+006 1.053269070453e+006 1.052970163645e+006 1.052970163643e+006 1.052970163643e+006 1.052970163643e+006 1.052970163641e+006 1.052970163644e+006 1.052970163642e+006 1.052970163643e+006 1.052970163642e+006 1.052659442349e+006 1.052659442350e+006 1.052659442349e+006 1.052659442350e+006 1.052659442349e+006 1.052659442349e+006 1.052659442350e+006 1.052659442350e+006 1.052659442349e+006 1.052300846729e+006 1.052300846730e+006 1.052300846729e+006 1.052300846729e+006 1.052300846730e+006 1.052300846730e+006 1.052300846730e+006 1.052300846729e+006 1.052300846731e+006 1.051968491996e+006 1.051968491995e+006 1.051968491995e+006 1.051968491995e+006 1.051968491995e+006 1.051968491995e+006 1.051968491995e+006 1.051968491994e+006 1.051968491996e+006 1.051577685730e+006 1.051577685728e+006 1.051577685730e+006 1.051577685729e+006 1.051577685729e+006 1.051577685730e+006 1.051577685729e+006 1.051577685729e+006 1.051577685729e+006 1.051194251487e+006 1.051194251487e+006 1.051194251488e+006 1.051194251486e+006 1.051194251487e+006 1.051194251486e+006 1.051194251486e+006 1.051194251487e+006 1.051194251486e+006 1.050784932031e+006 1.050784932030e+006 1.050784932031e+006 1.050784932032e+006 1.050784932031e+006 1.050784932032e+006 1.050784932032e+006 1.050784932031e+006 1.050784932032e+006 1.050356353713e+006 1.050356353714e+006 1.050356353713e+006 1.050356353713e+006 1.050356353713e+006 1.050356353713e+006 1.050356353713e+006 1.050356353713e+006 1.050356353713e+006 1.049922696120e+006 1.049922696119e+006 1.049922696119e+006 1.049922696118e+006 1.049922696120e+006 1.049922696118e+006 1.049922696119e+006 1.049922696119e+006 1.049922696119e+006 1.049448658143e+006 1.049448658143e+006 1.049448658143e+006 1.049448658144e+006 1.049448658143e+006 1.049448658143e+006 1.049448658143e+006 1.049448658143e+006 1.049448658143e+006 1.048985888036e+006 1.048985888036e+006 1.048985888036e+006 1.048985888036e+006 1.048985888036e+006 1.048985888036e+006 1.048985888036e+006 1.048985888036e+006 1.048985888036e+006 1.048487838510e+006 1.048487838511e+006 1.048487838511e+006 1.048487838511e+006 1.048487838511e+006 1.048487838511e+006 1.048487838511e+006 1.048487838511e+006 1.048487838511e+006 1.047974730024e+006 1.047974730025e+006 1.047974730024e+006 1.047974730024e+006 1.047974730024e+006 1.047974730024e+006 1.047974730024e+006 1.047974730024e+006 1.047974730024e+006 1.047466651601e+006 1.047466651600e+006 1.047466651601e+006 1.047466651601e+006 1.047466651601e+006 1.047466651601e+006 1.047466651601e+006 1.047466651601e+006 1.047466651601e+006 1.046909495916e+006 1.046909495916e+006 1.046909495916e+006 1.046909495916e+006 1.046909495916e+006 1.046909495916e+006 1.046909495916e+006 1.046909495916e+006 1.046909495916e+006 1.046365344364e+006 1.046365344364e+006 1.046365344364e+006 1.046365344364e+006 1.046365344364e+006 1.046365344364e+006 1.046365344364e+006 1.046365344364e+006 1.046365344364e+006 1.045798748906e+006 1.045798748906e+006 1.045798748906e+006 1.045798748906e+006 1.045798748906e+006 1.045798748906e+006 1.045798748906e+006 1.045798748906e+006 1.045798748906e+006 1.045200160777e+006 1.045200160777e+006 1.045200160777e+006 1.045200160777e+006 1.045200160777e+006 1.045200160778e+006 1.045200160777e+006 1.045200160778e+006 1.045200160777e+006 1.044619377949e+006 1.044619377949e+006 1.044619377949e+006 1.044619377949e+006 1.044619377949e+006 1.044619377949e+006 1.044619377949e+006 1.044619377948e+006 1.044619377949e+006 1.043997028174e+006 1.043997028175e+006 1.043997028175e+006 1.043997028175e+006 1.043997028174e+006 1.043997028175e+006 1.043997028175e+006 1.043997028174e+006 1.043997028175e+006 1.043369007963e+006 1.043369007963e+006 1.043369007963e+006 1.043369007963e+006 1.043369007963e+006 1.043369007963e+006 1.043369007963e+006 1.043369007963e+006 1.043369007963e+006 1.042739387821e+006 1.042739387821e+006 1.042739387821e+006 1.042739387821e+006 1.042739387822e+006 1.042739387821e+006 1.042739387821e+006 1.042739387821e+006 1.042739387821e+006 1.042077353333e+006 1.042077353333e+006 1.042077353332e+006 1.042077353333e+006 1.042077353333e+006 1.042077353333e+006 1.042077353333e+006 1.042077353333e+006 1.042077353333e+006 1.041413408513e+006 1.041413408513e+006 1.041413408513e+006 1.041413408513e+006 1.041413408513e+006 1.041413408513e+006 1.041413408513e+006 1.041413408513e+006 1.041413408513e+006 1.040748008808e+006 1.040748008808e+006 1.040748008808e+006 1.040748008808e+006 1.040748008808e+006 1.040748008808e+006 1.040748008808e+006 1.040748008808e+006 1.040748008808e+006 1.040042128195e+006 1.040042128195e+006 1.040042128195e+006 1.040042128195e+006 1.040042128195e+006 1.040042128195e+006 1.040042128195e+006 1.040042128195e+006 1.040042128195e+006 1.039345639304e+006 1.039345639304e+006 1.039345639304e+006 1.039345639304e+006 1.039345639304e+006 1.039345639304e+006 1.039345639304e+006 1.039345639304e+006 1.039345639304e+006 1.038635941389e+006 1.038635941388e+006 1.038635941389e+006 1.038635941389e+006 1.038635941389e+006 1.038635941389e+006 1.038635941389e+006 1.038635941389e+006 1.038635941388e+006 1.037911119822e+006 1.037911119822e+006 1.037911119822e+006 1.037911119822e+006 1.037911119823e+006 1.037911119822e+006 1.037911119823e+006 1.037911119822e+006 1.037911119822e+006 1.037186448177e+006 1.037186448177e+006 1.037186448177e+006 1.037186448177e+006 1.037186448177e+006 1.037186448177e+006 1.037186448177e+006 1.037186448177e+006 1.037186448177e+006 1.036427891871e+006 1.036427891871e+006 1.036427891871e+006 1.036427891871e+006 1.036427891871e+006 1.036427891871e+006 1.036427891871e+006 1.036427891871e+006 1.036427891871e+006 1.035664897275e+006 1.035664897275e+006 1.035664897275e+006 1.035664897275e+006 1.035664897275e+006 1.035664897275e+006 1.035664897275e+006 1.035664897275e+006 1.035664897275e+006 1.034929756543e+006 1.034929756543e+006 1.034929756543e+006 1.034929756543e+006 1.034929756543e+006 1.034929756543e+006 1.034929756543e+006 1.034929756543e+006 1.034929756543e+006 1.034147097698e+006 1.034147097698e+006 1.034147097698e+006 1.034147097698e+006 1.034147097698e+006 1.034147097698e+006 1.034147097698e+006 1.034147097698e+006 1.034147097698e+006 1.033365409000e+006 1.033365409000e+006 1.033365409000e+006 1.033365409000e+006 1.033365409000e+006 1.033365409000e+006 1.033365409000e+006 1.033365409000e+006 1.033365409000e+006 1.032574678154e+006 1.032574678154e+006 1.032574678154e+006 1.032574678154e+006 1.032574678154e+006 1.032574678154e+006 1.032574678154e+006 1.032574678154e+006 1.032574678154e+006 1.031768055508e+006 1.031768055508e+006 1.031768055508e+006 1.031768055508e+006 1.031768055508e+006 1.031768055508e+006 1.031768055508e+006 1.031768055508e+006 1.031768055509e+006 1.030974309914e+006 1.030974309915e+006 1.030974309914e+006 1.030974309914e+006 1.030974309915e+006 1.030974309915e+006 1.030974309915e+006 1.030974309915e+006 1.030974309914e+006 1.030174909715e+006 1.030174909714e+006 1.030174909714e+006 1.030174909715e+006 1.030174909715e+006 1.030174909715e+006 1.030174909714e+006 1.030174909715e+006 1.030174909715e+006 1.029354645043e+006 1.029354645043e+006 1.029354645043e+006 1.029354645043e+006 1.029354645043e+006 1.029354645043e+006 1.029354645043e+006 1.029354645043e+006 1.029354645043e+006 1.028526481442e+006 1.028526481443e+006 1.028526481442e+006 1.028526481442e+006 1.028526481442e+006 1.028526481443e+006 1.028526481442e+006 1.028526481442e+006 1.028526481443e+006 1.027712660438e+006 1.027712660439e+006 1.027712660438e+006 1.027712660438e+006 1.027712660438e+006 1.027712660438e+006 1.027712660438e+006 1.027712660438e+006 1.027712660438e+006 1.026880272995e+006 1.026880272994e+006 1.026880272996e+006 1.026880272995e+006 1.026880272994e+006 1.026880272994e+006 1.026880272995e+006 1.026880272995e+006 1.026880272994e+006 1.025996915100e+006 1.025996915100e+006 1.025996915100e+006 1.025996915101e+006 1.025996915101e+006 1.025996915101e+006 1.025996915101e+006 1.025996915102e+006 1.025996915101e+006 1.025204890228e+006 1.025204890228e+006 1.025204890228e+006 1.025204890228e+006 1.025204890228e+006 1.025204890228e+006 1.025204890228e+006 1.025204890228e+006 1.025204890227e+006 1.024404393348e+006 1.024404393348e+006 1.024404393346e+006 1.024404393344e+006 1.024404393343e+006 1.024404393341e+006 1.024404393341e+006 1.024404393341e+006 1.024404393341e+006 1.023516745444e+006 1.023516745444e+006 1.023516745446e+006 1.023516745454e+006 1.023516745459e+006 1.023516745462e+006 1.023516745463e+006 1.023516745465e+006 1.023516745464e+006 1.022606881292e+006 1.022606881292e+006 1.022606881290e+006 1.022606881275e+006 1.022606881266e+006 1.022606881262e+006 1.022606881259e+006 1.022606881258e+006 1.022606881257e+006 1.021919253351e+006 1.021919253351e+006 1.021919253351e+006 1.021919253375e+006 1.021919253385e+006 1.021919253389e+006 1.021919253393e+006 1.021919253395e+006 1.021919253395e+006 1.020892232894e+006 1.020892232892e+006 1.020892232895e+006 1.020892232870e+006 1.020892232865e+006 1.020892232860e+006 1.020892232857e+006 1.020892232855e+006 1.020892232855e+006 1.020236623948e+006 1.020236623952e+006 1.020236623947e+006 1.020236623956e+006 1.020236623955e+006 1.020236623957e+006 1.020236623958e+006 1.020236623959e+006 1.020236623958e+006 1.019261537118e+006 1.019261537120e+006 1.019261537114e+006 1.019261537128e+006 1.019261537126e+006 1.019261537128e+006 1.019261537129e+006 1.019261537128e+006 1.019261537130e+006 1.018430179873e+006 1.018430179874e+006 1.018430179868e+006 1.018430179875e+006 1.018430179870e+006 1.018430179871e+006 1.018430179872e+006 1.018430179871e+006 1.018430179871e+006 1.017645003530e+006 1.017645003530e+006 1.017645003526e+006 1.017645003530e+006 1.017645003527e+006 1.017645003526e+006 1.017645003526e+006 1.017645003525e+006 1.017645003526e+006 1.016810308369e+006 1.016810308368e+006 1.016810308367e+006 1.016810308368e+006 1.016810308366e+006 1.016810308366e+006 1.016810308367e+006 1.016810308366e+006 1.016810308365e+006 1.015996892917e+006 1.015996892917e+006 1.015996892917e+006 1.015996892917e+006 1.015996892917e+006 1.015996892917e+006 1.015996892918e+006 1.015996892918e+006 1.015996892917e+006 1.015159681090e+006 1.015159681090e+006 1.015159681089e+006 1.015159681091e+006 1.015159681090e+006 1.015159681089e+006 1.015159681091e+006 1.015159681090e+006 1.015159681091e+006 1.014342594513e+006 1.014342594513e+006 1.014342594513e+006 1.014342594514e+006 1.014342594514e+006 1.014342594514e+006 1.014342594514e+006 1.014342594514e+006 1.014342594514e+006 1.013586775717e+006 1.013586775717e+006 1.013586775717e+006 1.013586775717e+006 1.013586775717e+006 1.013586775717e+006 1.013586775717e+006 1.013586775718e+006 1.013586775717e+006 1.012792025864e+006 1.012792025863e+006 1.012792025862e+006 1.012792025863e+006 1.012792025863e+006 1.012792025863e+006 1.012792025862e+006 1.012792025863e+006 1.012792025864e+006 1.012048639331e+006 1.012048639332e+006 1.012048639331e+006 1.012048639331e+006 1.012048639330e+006 1.012048639331e+006 1.012048639331e+006 1.012048639331e+006 1.012048639330e+006 1.011333816245e+006 1.011333816245e+006 1.011333816244e+006 1.011333816244e+006 1.011333816244e+006 1.011333816244e+006 1.011333816244e+006 1.011333816244e+006 1.011333816244e+006 1.010632740084e+006 1.010632740083e+006 1.010632740083e+006 1.010632740083e+006 1.010632740083e+006 1.010632740083e+006 1.010632740083e+006 1.010632740083e+006 1.010632740083e+006 1.010073824481e+006 1.010073824481e+006 1.010073824481e+006 1.010073824481e+006 1.010073824481e+006 1.010073824481e+006 1.010073824481e+006 1.010073824480e+006 1.010073824481e+006 1.009594079401e+006 1.009594079401e+006 1.009594079401e+006 1.009594079401e+006 1.009594079402e+006 1.009594079402e+006 1.009594079401e+006 1.009594079401e+006 1.009594079401e+006 1.009114341997e+006 1.009114341997e+006 1.009114341997e+006 1.009114341997e+006 1.009114341997e+006 1.009114341997e+006 1.009114341997e+006 1.009114341997e+006 1.009114341997e+006 1.008634610128e+006 1.008634610128e+006 1.008634610128e+006 1.008634610128e+006 1.008634610128e+006 1.008634610128e+006 1.008634610128e+006 1.008634610128e+006 1.008634610128e+006 1.008154883157e+006 1.008154883157e+006 1.008154883157e+006 1.008154883157e+006 1.008154883157e+006 1.008154883157e+006 1.008154883156e+006 1.008154883156e+006 1.008154883156e+006 1.007675160781e+006 1.007675160782e+006 1.007675160782e+006 1.007675160782e+006 1.007675160781e+006 1.007675160782e+006 1.007675160782e+006 1.007675160781e+006 1.007675160781e+006 1.007195442747e+006 1.007195442747e+006 1.007195442747e+006 1.007195442747e+006 1.007195442747e+006 1.007195442747e+006 1.007195442747e+006 1.007195442747e+006 1.007195442747e+006 1.006715728787e+006 1.006715728787e+006 1.006715728787e+006 1.006715728787e+006 1.006715728787e+006 1.006715728787e+006 1.006715728787e+006 1.006715728787e+006 1.006715728787e+006 1.006236018624e+006 1.006236018624e+006 1.006236018624e+006 1.006236018624e+006 1.006236018623e+006 1.006236018623e+006 1.006236018623e+006 1.006236018623e+006 1.006236018623e+006 1.005756311975e+006 1.005756311975e+006 1.005756311975e+006 1.005756311975e+006 1.005756311975e+006 1.005756311975e+006 1.005756311974e+006 1.005756311974e+006 1.005756311974e+006 1.005276608554e+006 1.005276608554e+006 1.005276608554e+006 1.005276608554e+006 1.005276608554e+006 1.005276608554e+006 1.005276608554e+006 1.005276608554e+006 1.005276608554e+006 1.004796908074e+006 1.004796908075e+006 1.004796908075e+006 1.004796908074e+006 1.004796908074e+006 1.004796908074e+006 1.004796908074e+006 1.004796908074e+006 1.004796908074e+006 1.004317210244e+006 1.004317210244e+006 1.004317210244e+006 1.004317210244e+006 1.004317210244e+006 1.004317210244e+006 1.004317210244e+006 1.004317210244e+006 1.004317210244e+006 1.003837514771e+006 1.003837514771e+006 1.003837514771e+006 1.003837514771e+006 1.003837514771e+006 1.003837514771e+006 1.003837514771e+006 1.003837514771e+006 1.003837514771e+006 1.003357821358e+006 1.003357821358e+006 1.003357821358e+006 1.003357821358e+006 1.003357821358e+006 1.003357821358e+006 1.003357821358e+006 1.003357821358e+006 1.003357821358e+006 1.002878129709e+006 1.002878129709e+006 1.002878129709e+006 1.002878129709e+006 1.002878129709e+006 1.002878129709e+006 1.002878129709e+006 1.002878129709e+006 1.002878129709e+006 1.002398439523e+006 1.002398439523e+006 1.002398439523e+006 1.002398439523e+006 1.002398439523e+006 1.002398439523e+006 1.002398439523e+006 1.002398439523e+006 1.002398439523e+006 1.001918750501e+006 1.001918750501e+006 1.001918750501e+006 1.001918750501e+006 1.001918750501e+006 1.001918750501e+006 1.001918750501e+006 1.001918750501e+006 1.001918750501e+006 1.001439062340e+006 1.001439062340e+006 1.001439062340e+006 1.001439062340e+006 1.001439062340e+006 1.001439062340e+006 1.001439062340e+006 1.001439062340e+006 1.001439062340e+006 1.000959374739e+006 1.000959374739e+006 1.000959374739e+006 1.000959374739e+006 1.000959374739e+006 1.000959374739e+006 1.000959374739e+006 1.000959374739e+006 1.000959374739e+006 1.000479687393e+006 1.000479687393e+006 1.000479687393e+006 1.000479687393e+006 1.000479687393e+006 1.000479687393e+006 1.000479687393e+006 1.000479687393e+006 1.000479687393e+006 1.000000000000e+006 1.000000000000e+006 1.000000000000e+006 1.000000000000e+006 1.000000000000e+006 1.000000000000e+006 1.000000000000e+006 1.000000000000e+006 1.000000000000e+006 
        </DataArray>
        <DataArray type="Float64" Name="MOLAR_FRACTION" format="ascii">