<?xml version="1.0"?>
<VTKFile type="UnstructuredGrid" version="0.1" byte_order="LittleEndian">
  <UnstructuredGrid>
    <Piece NumberOfPoints="909" NumberOfCells="800">
      <Points>
        <DataArray type="Float64" NumberOfComponents="3" format="ascii">
          0.000000000000e+000 0.000000000000e+000 0.000000000000e+000
          2.000000000000e+000 0.000000000000e+000 0.000000000000e+000
          2.000000000000e+000 2.500000000000e+000 0.000000000000e+000
          0.000000000000e+000 2.500000000000e+000 0.000000000000e+000
          2.000000000000e+000 5.000000000000e+000 0.000000000000e+000
          0.000000000000e+000 5.000000000000e+000 0.000000000000e+000
          2.000000000000e+000 7.500000000000e+000 0.000000000000e+000
          0.000000000000e+000 7.500000000000e+000 0.000000000000e+000
          2.000000000000e+000 1.000000000000e+001 0.000000000000e+000
          0.000000000000e+000 1.000000000000e+001 0.000000000000e+000
          2.000000000000e+000 1.250000000000e+001 0.000000000000e+000
          0.000000000000e+000 1.250000000000e+001 0.000000000000e+000
          2.000000000000e+000 1.500000000000e+001 0.000000000000e+000
          0.000000000000e+000 1.500000000000e+001 0.000000000000e+000
          2.000000000000e+000 1.750000000000e+001 0.000000000000e+000
          0.000000000000e+000 1.750000000000e+001 0.000000000000e+000
          2.000000000000e+000 2.000000000000e+001 0.000000000000e+000
          0.000000000000e+000 2.000000000000e+001 0.000000000000e+000
          4.000000000000e+000 0.000000000000e+000 0.000000000000e+000
          4.000000000000e+000 2.500000000000e+000 0.000000000000e+000
          4.000000000000e+000 5.000000000000e+000 0.000000000000e+000
          4.000000000000e+000 7.500000000000e+000 0.000000000000e+000
          4.000000000000e+000 1.000000000000e+001 0.000000000000e+000
          4.000000000000e+000 1.250000000000e+001 0.000000000000e+000
          4.000000000000e+000 1.500000000000e+001 0.000000000000e+000
          4.000000000000e+000 1.750000000000e+001 0.000000000000e+000
          4.000000000000e+000 2.000000000000e+001 0.000000000000e+000
          6.000000000000e+000 0.000000000000e+000 0.000000000000e+000
          6.000000000000e+000 2.500000000000e+000 0.000000000000e+000
          6.000000000000e+000 5.000000000000e+000 0.000000000000e+000
          6.000000000000e+000 7.500000000000e+000 0.000000000000e+000
          6.000000000000e+000 1.000000000000e+001 0.000000000000e+000
          6.000000000000e+000 1.250000000000e+001 0.000000000000e+000
          6.000000000000e+000 1.500000000000e+001 0.000000000000e+000
          6.000000000000e+000 1.750000000000e+001 0.000000000000e+000
          6.000000000000e+000 2.000000000000e+001 0.000000000000e+000
          8.000000000000e+000 0.000000000000e+000 0.000000000000e+000
          8.000000000000e+000 2.500000000000e+000 0.000000000000e+000
          8.000000000000e+000 5.000000000000e+000 0.000000000000e+000
          8.000000000000e+000 7.500000000000e+000 0.000000000000e+000
          8.000000000000e+000 1.000000000000e+001 0.000000000000e+000
          8.000000000000e+000 1.250000000000e+001 0.000000000000e+000
          8.000000000000e+000 1.500000000000e+001 0.000000000000e+000
          8.000000000000e+000 1.750000000000e+001 0.000000000000e+000
          8.000000000000e+000 2.000000000000e+001 0.000000000000e+000
          1.000000000000e+001 0.000000000000e+000 0.000000000000e+000
          1.000000000000e+001 2.500000000000e+000 0.000000000000e+000
          1.000000000000e+001 5.000000000000e+000 0.000000000000e+000
          1.000000000000e+001 7.500000000000e+000 0.000000000000e+000
          1.000000000000e+001 1.000000000000e+001 0.000000000000e+000
          1.000000000000e+001 1.250000000000e+001 0.000000000000e+000
          1.000000000000e+001 1.500000000000e+001 0.000000000000e+000
          1.000000000000e+001 1.750000000000e+001 0.000000000000e+000
          1.000000000000e+001 2.000000000000e+001 0.000000000000e+000
          1.200000000000e+001 0.000000000000e+000 0.000000000000e+000
          1.200000000000e+001 2.500000000000e+000 0.000000000000e+000
          1.200000000000e+001 5.000000000000e+000 0.000000000000e+000
          1.200000000000e+001 7.500000000000e+000 0.000000000000e+000
          1.200000000000e+001 1.000000000000e+001 0.000000000000e+000
          1.200000000000e+001 1.250000000000e+001 0.000000000000e+000
          1.200000000000e+001 1.500000000000e+001 0.000000000000e+000
          1.200000000000e+001 1.750000000000e+001 0.000000000000e+000
          1.200000000000e+001 2.000000000000e+001 0.000000000000e+000
          1.400000000000e+001 0.000000000000e+000 0.000000000000e+000
          1.400000000000e+001 2.500000000000e+000 0.000000000000e+000
          1.400000000000e+001 5.000000000000e+000 0.000000000000e+000
          1.400000000000e+001 7.500000000000e+000 0.000000000000e+000
          1.400000000000e+001 1.000000000000e+001 0.000000000000e+000
          1.400000000000e+001 1.250000000000e+001 0.000000000000e+000
          1.400000000000e+001 1.500000000000e+001 0.000000000000e+000
          1.400000000000e+001 1.750000000000e+001 0.000000000000e+000
          1.400000000000e+001 2.000000000000e+001 0.000000000000e+000
          1.600000000000e+001 0.000000000000e+000 0.000000000000e+000
          1.600000000000e+001 2.500000000000e+000 0.000000000000e+000
          1.600000000000e+001 5.000000000000e+000 0.000000000000e+000
          1.600000000000e+001 7.500000000000e+000 0.000000000000e+000
          1.600000000000e+001 1.000000000000e+001 0.000000000000e+000
          1.600000000000e+001 1.250000000000e+001 0.000000000000e+000
          1.600000000000e+001 1.500000000000e+001 0.000000000000e+000
          1.600000000000e+001 1.750000000000e+001 0.000000000000e+000
          1.600000000000e+001 2.000000000000e+001 0.000000000000e+000
          1.800000000000e+001 0.000000000000e+000 0.000000000000e+000
          1.800000000000e+001 2.500000000000e+000 0.000000000000e+000
          1.800000000000e+001 5.000000000000e+000 0.000000000000e+000
          1.800000000000e+001 7.500000000000e+000 0.000000000000e+000
          1.800000000000e+001 1.000000000000e+001 0.000000000000e+000
          1.800000000000e+001 1.250000000000e+001 0.000000000000e+000
          1.800000000000e+001 1.500000000000e+001 0.000000000000e+000
          1.800000000000e+001 1.750000000000e+001 0.000000000000e+000
          1.800000000000e+001 2.000000000000e+001 0.000000000000e+000
          2.000000000000e+001 0.000000000000e+000 0.000000000000e+000
          2.000000000000e+001 2.500000000000e+000 0.000000000000e+000
          2.000000000000e+001 5.000000000000e+000 0.000000000000e+000
          2.000000000000e+001 7.500000000000e+000 0.000000000000e+000
          2.000000000000e+001 1.000000000000e+001 0.000000000000e+000
          2.000000000000e+001 1.250000000000e+001 0.000000000000e+000
          2.000000000000e+001 1.500000000000e+001 0.000000000000e+000
          2.000000000000e+001 1.750000000000e+001 0.000000000000e+000
          2.000000000000e+001 2.000000000000e+001 0.000000000000e+000
          2.200000000000e+001 0.000000000000e+000 0.000000000000e+000
          2.200000000000e+001 2.500000000000e+000 0.000000000000e+000
          2.200000000000e+001 5.000000000000e+000 0.000000000000e+000
          2.200000000000e+001 7.500000000000e+000 0.000000000000e+000
          2.200000000000e+001 1.000000000000e+001 0.000000000000e+000
          2.200000000000e+001 1.250000000000e+001 0.000000000000e+000
          2.200000000000e+001 1.500000000000e+001 0.000000000000e+000
          2.200000000000e+001 1.750000000000e+001 0.000000000000e+000
          2.200000000000e+001 2.000000000000e+001 0.000000000000e+000
          2.400000000000e+001 0.000000000000e+000 0.000000000000e+000
          2.400000000000e+001 2.500000000000e+000 0.000000000000e+000
          2.400000000000e+001 5.000000000000e+000 0.000000000000e+000
          2.400000000000e+001 7.500000000000e+000 0.000000000000e+000
          2.400000000000e+001 1.000000000000e+001 0.000000000000e+000
          2.400000000000e+001 1.250000000000e+001 0.000000000000e+000
          2.400000000000e+001 1.500000000000e+001 0.000000000000e+000
          2.400000000000e+001 1.750000000000e+001 0.000000000000e+000
          2.400000000000e+001 2.000000000000e+001 0.000000000000e+000
          2.600000000000e+001 0.000000000000e+000 0.000000000000e+000
          2.600000000000e+001 2.500000000000e+000 0.000000000000e+000
          2.600000000000e+001 5.000000000000e+000 0.000000000000e+000
          2.600000000000e+001 7.500000000000e+000 0.000000000000e+000
          2.600000000000e+001 1.000000000000e+001 0.000000000000e+000
          2.600000000000e+001 1.250000000000e+001 0.000000000000e+000
          2.600000000000e+001 1.500000000000e+001 0.000000000000e+000
          2.600000000000e+001 1.750000000000e+001 0.000000000000e+000
          2.600000000000e+001 2.000000000000e+001 0.000000000000e+000
          2.800000000000e+001 0.000000000000e+000 0.000000000000e+000
          2.800000000000e+001 2.500000000000e+000 0.000000000000e+000
          2.800000000000e+001 5.000000000000e+000 0.000000000000e+000
          2.800000000000e+001 7.500000000000e+000 0.000000000000e+000
          2.800000000000e+001 1.000000000000e+001 0.000000000000e+000
          2.800000000000e+001 1.250000000000e+001 0.000000000000e+000
          2.800000000000e+001 1.500000000000e+001 0.000000000000e+000
          2.800000000000e+001 1.750000000000e+001 0.000000000000e+000
          2.800000000000e+001 2.000000000000e+001 0.000000000000e+000
          3.000000000000e+001 0.000000000000e+000 0.000000000000e+000
          3.000000000000e+001 2.500000000000e+000 0.000000000000e+000
          3.000000000000e+001 5.000000000000e+000 0.000000000000e+000
          3.000000000000e+001 7.500000000000e+000 0.000000000000e+000
[...]
      <PointData Scalars="LIQUID_PRESSURE">
        <DataArray type="Float64" Name="LIQUID_PRESSURE" format="ascii">
          1.020819540244e+006 1.020830554810e+006 1.020830554817e+006 1.020819540176e+006 1.020830554846e+006 1.020819540128e+006 1.020830554810e+006 1.020819540198e+006 1.020830554826e+006 1.020819540186e+006 1.020830554862e+006 1.020819540086e+006 1.020830554856e+006 1.020819540090e+006 1.020830554873e+006 1.020819540063e+006 1.020830554897e+006 1.020819539996e+006 1.020819971998e+006 1.020819972026e+006 1.020819972038e+006 1.020819972006e+006 1.020819972006e+006 1.020819972039e+006 1.020819972016e+006 1.020819972034e+006 1.020819972057e+006 1.020775532775e+006 1.020775532790e+006 1.020775532797e+006 1.020775532771e+006 1.020775532772e+006 1.020775532783e+006 1.020775532774e+006 1.020775532773e+006 1.020775532786e+006 1.020775763714e+006 1.020775763727e+006 1.020775763726e+006 1.020775763703e+006 1.020775763698e+006 1.020775763707e+006 1.020775763700e+006 1.020775763696e+006 1.020775763707e+006 1.020724258916e+006 1.020724258922e+006 1.020724258913e+006 1.020724258904e+006 1.020724258900e+006 1.020724258911e+006 1.020724258900e+006 1.020724258901e+006 1.020724258912e+006 1.020669142171e+006 1.020669142172e+006 1.020669142168e+006 1.020669142164e+006 1.020669142163e+006 1.020669142163e+006 1.020669142163e+006 1.020669142165e+006 1.020669142168e+006 1.020642515232e+006 1.020642515222e+006 1.020642515222e+006 1.020642515219e+006 1.020642515216e+006 1.020642515214e+006 1.020642515218e+006 1.020642515215e+006 1.020642515224e+006 1.020553845142e+006 1.020553845135e+006 1.020553845132e+006 1.020553845131e+006 1.020553845127e+006 1.020553845127e+006 1.020553845133e+006 1.020553845136e+006 1.020553845132e+006 1.020501603473e+006 1.020501603467e+006 1.020501603467e+006 1.020501603462e+006 1.020501603460e+006 1.020501603461e+006 1.020501603469e+006 1.020501603469e+006 1.020501603467e+006 1.020424058187e+006 1.020424058195e+006 1.020424058193e+006 1.020424058186e+006 1.020424058183e+006 1.020424058183e+006 1.020424058195e+006 1.020424058197e+006 1.020424058192e+006 1.020329189507e+006 1.020329189514e+006 1.020329189509e+006 1.020329189507e+006 1.020329189502e+006 1.020329189499e+006 1.020329189514e+006 1.020329189515e+006 1.020329189514e+006 1.020253178754e+006 1.020253178751e+006 1.020253178756e+006 1.020253178743e+006 1.020253178745e+006 1.020253178752e+006 1.020253178750e+006 1.020253178752e+006 1.020253178756e+006 1.020135426305e+006 1.020135426294e+006 1.020135426289e+006 1.020135426291e+006 1.020135426290e+006 1.020135426294e+006 1.020135426295e+006 1.020135426293e+006 1.020135426293e+006 1.020044372251e+006 1.020044372247e+006 1.020044372237e+006 1.020044372245e+006 1.020044372241e+006 1.020044372246e+006 1.020044372243e+006 1.020044372246e+006 1.020044372243e+006 1.019920143926e+006 1.019920143924e+006 1.019920143923e+006 1.019920143921e+006 1.019920143922e+006 1.019920143919e+006 1.019920143921e+006 1.019920143919e+006 1.019920143921e+006 1.019799491312e+006 1.019799491306e+006 1.019799491304e+006 1.019799491305e+006 1.019799491309e+006 1.019799491305e+006 1.019799491308e+006 1.019799491308e+006 1.019799491311e+006 1.019679584276e+006 1.019679584284e+006 1.019679584276e+006 1.019679584279e+006 1.019679584285e+006 1.019679584285e+006 1.019679584285e+006 1.019679584284e+006 1.019679584285e+006 1.019524502967e+006 1.019524502968e+006 1.019524502968e+006 1.019524502963e+006 1.019524502970e+006 1.019524502972e+006 1.019524502969e+006 1.019524502969e+006 1.019524502971e+006 1.019401992216e+006 1.019401992203e+006 1.019401992206e+006 1.019401992209e+006 1.019401992206e+006 1.019401992203e+006 1.019401992202e+006 1.019401992205e+006 1.019401992209e+006 1.019236451488e+006 1.019236451485e+006 1.019236451483e+006 1.019236451488e+006 1.019236451481e+006 1.019236451486e+006 1.019236451484e+006 1.019236451477e+006 1.019236451484e+006 1.019085982315e+006 1.019085982326e+006 1.019085982324e+006 1.019085982319e+006 1.019085982320e+006 1.019085982320e+006 1.019085982316e+006 1.019085982312e+006 1.019085982310e+006 1.018921151134e+006 1.018921151136e+006 1.018921151140e+006 1.018921151137e+006 1.018921151134e+006 1.018921151136e+006 1.018921151132e+006 1.018921151127e+006 1.018921151127e+006 1.018747083912e+006 1.018747083909e+006 1.018747083910e+006 1.018747083909e+006 1.018747083909e+006 1.018747083907e+006 1.018747083907e+006 1.018747083903e+006 1.018747083897e+006 1.018578515255e+006 1.018578515261e+006 1.018578515255e+006 1.018578515256e+006 1.018578515253e+006 1.018578515253e+006 1.018578515254e+006 1.018578515252e+006 1.018578515248e+006 1.018382183899e+006 1.018382183905e+006 1.018382183904e+006 1.018382183899e+006 1.018382183898e+006 1.018382183895e+006 1.018382183895e+006 1.018382183898e+006 1.018382183892e+006 1.018203522623e+006 1.018203522625e+006 1.018203522626e+006 1.018203522622e+006 1.018203522620e+006 1.018203522618e+006 1.018203522619e+006 1.018203522623e+006 1.018203522619e+006 1.018002943158e+006 1.018002943154e+006 1.018002943154e+006 1.018002943153e+006 1.018002943151e+006 1.018002943145e+006 1.018002943150e+006 1.018002943153e+006 1.018002943156e+006 1.017795382168e+006 1.017795382163e+006 1.017795382155e+006 1.017795382161e+006 1.017795382158e+006 1.017795382155e+006 1.017795382158e+006 1.017795382160e+006 1.017795382167e+006 1.017601177413e+006 1.017601177405e+006 1.017601177401e+006 1.017601177404e+006 1.017601177405e+006 1.017601177399e+006 1.017601177400e+006 1.017601177402e+006 1.017601177403e+006 1.017372101878e+006 1.017372101877e+006 1.017372101874e+006 1.017372101876e+006 1.017372101874e+006 1.017372101870e+006 1.017372101873e+006 1.017372101870e+006 1.017372101868e+006 1.017160829454e+006 1.017160829456e+006 1.017160829454e+006 1.017160829456e+006 1.017160829455e+006 1.017160829449e+006 1.017160829452e+006 1.017160829452e+006 1.017160829452e+006 1.016939180051e+006 1.016939180045e+006 1.016939180045e+006 1.016939180046e+006 1.016939180044e+006 1.016939180043e+006 1.016939180039e+006 1.016939180036e+006 1.016939180040e+006 1.016695890061e+006 1.016695890058e+006 1.016695890056e+006 1.016695890057e+006 1.016695890058e+006 1.016695890053e+006 1.016695890051e+006 1.016695890050e+006 1.016695890049e+006 1.016475272675e+006 1.016475272675e+006 1.016475272671e+006 1.016475272673e+006 1.016475272678e+006 1.016475272671e+006 1.016475272671e+006 1.016475272667e+006 1.016475272669e+006 1.016226562107e+006 1.016226562101e+006 1.016226562099e+006 1.016226562100e+006 1.016226562101e+006 1.016226562103e+006 1.016226562099e+006 1.016226562097e+006 1.016226562094e+006 1.015979198021e+006 1.015979198023e+006 1.015979198021e+006 1.015979198023e+006 1.015979198025e+006 1.015979198023e+006 1.015979198021e+006 1.015979198015e+006 1.015979198014e+006 1.015737396521e+006 1.015737396526e+006 1.015737396529e+006 1.015737396531e+006 1.015737396531e+006 1.015737396529e+006 1.015737396529e+006 1.015737396522e+006 1.015737396516e+006 1.015474646597e+006 1.015474646596e+006 1.015474646596e+006 1.015474646602e+006 1.015474646603e+006 1.015474646601e+006 1.015474646599e+006 1.015474646594e+006 1.015474646592e+006 1.015215416788e+006 1.015215416782e+006 1.015215416783e+006 1.015215416785e+006 1.015215416788e+006 1.015215416786e+006 1.015215416789e+006 1.015215416782e+006 1.015215416784e+006 1.014962403150e+006 1.014962403153e+006 1.014962403151e+006 1.014962403154e+006 1.014962403153e+006 1.014962403151e+006 1.014962403155e+006 1.014962403153e+006 1.014962403155e+006 1.014682566574e+006 1.014682566573e+006 1.014682566574e+006 1.014682566576e+006 1.014682566573e+006 1.014682566572e+006 1.014682566571e+006 1.014682566574e+006 1.014682566575e+006 1.014415279224e+006 1.014415279224e+006 1.014415279223e+006 1.014415279224e+006 1.014415279222e+006 1.014415279217e+006 1.014415279224e+006 1.014415279222e+006 1.014415279224e+006 1.014141412157e+006 1.014141412161e+006 1.014141412159e+006 1.014141412158e+006 1.014141412155e+006 1.014141412153e+006 1.014141412153e+006 1.014141412159e+006 1.014141412159e+006 1.013859539160e+006 1.013859539163e+006 1.013859539164e+006 1.013859539163e+006 1.013859539160e+006 1.013859539156e+006 1.013859539156e+006 1.013859539158e+006 1.013859539155e+006 1.013586568807e+006 1.013586568811e+006 1.013586568810e+006 1.013586568812e+006 1.013586568808e+006 1.013586568804e+006 1.013586568804e+006 1.013586568804e+006 1.013586568803e+006 1.013292455201e+006 1.013292455203e+006 1.013292455203e+006 1.013292455204e+006 1.013292455201e+006 1.013292455201e+006 1.013292455203e+006 1.013292455202e+006 1.013292455204e+006 1.012995266816e+006 1.012995266816e+006 1.012995266817e+006 1.012995266818e+006 1.012995266818e+006 1.012995266817e+006 1.012995266818e+006 1.012995266820e+006 1.012995266819e+006 1.012723686472e+006 1.012723686474e+006 1.012723686474e+006 1.012723686475e+006 1.012723686478e+006 1.012723686476e+006 1.012723686477e+006 1.012723686477e+006 1.012723686479e+006 1.012419072094e+006 1.012419072098e+006 1.012419072100e+006 1.012419072102e+006 1.012419072103e+006 1.012419072100e+006 1.012419072101e+006 1.012419072102e+006 1.012419072104e+006 1.012124388040e+006 1.012124388039e+006 1.012124388041e+006 1.012124388042e+006 1.012124388042e+006 1.012124388042e+006 1.012124388041e+006 1.012124388042e+006 1.012124388042e+006 1.011827081856e+006 1.011827081852e+006 1.011827081853e+006 1.011827081852e+006 1.011827081851e+006 1.011827081852e+006 1.011827081855e+006 1.011827081854e+006 1.011827081852e+006 1.011519093290e+006 1.011519093292e+006 1.011519093295e+006 1.011519093290e+006 1.011519093290e+006 1.011519093291e+006 1.011519093290e+006 1.011519093291e+006 1.011519093291e+006 1.011220916279e+006 1.011220916284e+006 1.011220916287e+006 1.011220916286e+006 1.011220916287e+006 1.011220916283e+006 1.011220916285e+006 1.011220916283e+006 1.011220916287e+006 1.010921821755e+006 1.010921821756e+006 1.010921821758e+006 1.010921821760e+006 1.010921821760e+006 1.010921821758e+006 1.010921821758e+006 1.010921821760e+006 1.010921821758e+006 1.010610130309e+006 1.010610130313e+006 1.010610130315e+006 1.010610130314e+006 1.010610130315e+006 1.010610130312e+006 1.010610130315e+006 1.010610130314e+006 1.010610130316e+006 1.010299933443e+006 1.010299933445e+006 1.010299933444e+006 1.010299933443e+006 1.010299933444e+006 1.010299933445e+006 1.010299933443e+006 1.010299933444e+006 1.010299933446e+006 1.009999475376e+006 1.009999475378e+006 1.009999475377e+006 1.009999475376e+006 1.009999475376e+006 1.009999475377e+006 1.009999475376e+006 1.009999475376e+006 1.009999475376e+006 1.009699891543e+006 1.009699891544e+006 1.009699891544e+006 1.009699891546e+006 1.009699891545e+006 1.009699891545e+006 1.009699891546e+006 1.009699891546e+006 1.009699891543e+006 1.009349620287e+006 1.009349620286e+006 1.009349620287e+006 1.009349620287e+006 1.009349620284e+006 1.009349620284e+006 1.009349620285e+006 1.009349620285e+006 1.009349620287e+006 1.009069904559e+006 1.009069904562e+006 1.009069904562e+006 1.009069904567e+006 1.009069904567e+006 1.009069904569e+006 1.009069904570e+006 1.009069904571e+006 1.009069904569e+006 1.008780440013e+006 1.008780440016e+006 1.008780440017e+006 1.008780440011e+006 1.008780440008e+006 1.008780440007e+006 1.008780440006e+006 1.008780440006e+006 1.008780440004e+006 1.008447275873e+006 1.008447275876e+006 1.008447275878e+006 1.008447275886e+006 1.008447275892e+006 1.008447275897e+006 1.008447275896e+006 1.008447275899e+006 1.008447275898e+006 1.008084616785e+006 1.008084616782e+006 1.008084616783e+006 1.008084616761e+006 1.008084616757e+006 1.008084616751e+006 1.008084616749e+006 1.008084616748e+006 1.008084616749e+006 1.007904152060e+006 1.007904152063e+006 1.007904152058e+006 1.007904152080e+006 1.007904152083e+006 1.007904152088e+006 1.007904152090e+006 1.007904152093e+006 1.007904152093e+006 1.007434617458e+006 1.007434617455e+006 1.007434617458e+006 1.007434617435e+006 1.007434617432e+006 1.007434617428e+006 1.007434617424e+006 1.007434617422e+006 1.007434617421e+006 1.007287632875e+006 1.007287632878e+006 1.007287632878e+006 1.007287632883e+006 1.007287632881e+006 1.007287632883e+006 1.007287632881e+006 1.007287632882e+006 1.007287632881e+006 1.006870860828e+006 1.006870860835e+006 1.006870860828e+006 1.006870860839e+006 1.006870860833e+006 1.006870860833e+006 1.006870860832e+006 1.006870860834e+006 1.006870860836e+006 1.006589114259e+006 1.006589114261e+006 1.006589114257e+006 1.006589114259e+006 1.006589114255e+006 1.006589114254e+006 1.006589114254e+006 1.006589114253e+006 1.006589114256e+006 1.006313482014e+006 1.006313482017e+006 1.006313482014e+006 1.006313482016e+006 1.006313482012e+006 1.006313482012e+006 1.006313482010e+006 1.006313482012e+006 1.006313482011e+006 1.006000878026e+006 1.006000878025e+006 1.006000878025e+006 1.006000878025e+006 1.006000878024e+006 1.006000878024e+006 1.006000878024e+006 1.006000878022e+006 1.006000878025e+006 1.005709907902e+006 1.005709907902e+006 1.005709907902e+006 1.005709907902e+006 1.005709907903e+006 1.005709907904e+006 1.005709907903e+006 1.005709907902e+006 1.005709907902e+006 1.005403548758e+006 1.005403548757e+006 1.005403548757e+006 1.005403548759e+006 1.005403548758e+006 1.005403548758e+006 1.005403548758e+006 1.005403548757e+006 1.005403548756e+006 1.005109450436e+006 1.005109450435e+006 1.005109450436e+006 1.005109450436e+006 1.005109450435e+006 1.005109450435e+006 1.005109450434e+006 1.005109450434e+006 1.005109450434e+006 1.004854386701e+006 1.004854386700e+006 1.004854386702e+006 1.004854386702e+006 1.004854386701e+006 1.004854386702e+006 1.004854386701e+006 1.004854386703e+006 1.004854386700e+006 1.004553386931e+006 1.004553386930e+006 1.004553386930e+006 1.004553386931e+006 1.004553386931e+006 1.004553386932e+006 1.004553386932e+006 1.004553386931e+006 1.004553386934e+006 1.004286907162e+006 1.004286907162e+006 1.004286907163e+006 1.004286907162e+006 1.004286907163e+006 1.004286907163e+006 1.004286907164e+006 1.004286907163e+006 1.004286907163e+006 1.004033006132e+006 1.004033006129e+006 1.004033006131e+006 1.004033006131e+006 1.004033006132e+006 1.004033006132e+006 1.004033006131e+006 1.004033006132e+006 1.004033006132e+006 1.003758257589e+006 1.003758257589e+006 1.003758257588e+006 1.003758257590e+006 1.003758257591e+006 1.003758257589e+006 1.003758257590e+006 1.003758257591e+006 1.003758257591e+006 1.003537998380e+006 1.003537998382e+006 1.003537998383e+006 1.003537998383e+006 1.003537998384e+006 1.003537998383e+006 1.003537998383e+006 1.003537998384e+006 1.003537998384e+006 1.003328570036e+006 1.003328570036e+006 1.003328570038e+006 1.003328570037e+006 1.003328570038e+006 1.003328570038e+006 1.003328570038e+006 1.003328570038e+006 1.003328570037e+006 1.003162134261e+006 1.003162134261e+006 1.003162134262e+006 1.003162134262e+006 1.003162134262e+006 1.003162134262e+006 1.003162134262e+006 1.003162134262e+006 1.003162134261e+006 1.002995700366e+006 1.002995700366e+006 1.002995700366e+006 1.002995700366e+006 1.002995700367e+006 1.002995700366e+006 1.002995700366e+006 1.002995700366e+006 1.002995700366e+006 1.002829267339e+006 1.002829267339e+006 1.002829267339e+006 1.002829267340e+006 1.002829267340e+006 1.002829267340e+006 1.002829267339e+006 1.002829267339e+006 1.002829267339e+006 1.002662835242e+006 1.002662835242e+006 1.002662835242e+006 1.002662835242e+006 1.002662835242e+006 1.002662835243e+006 1.002662835242e+006 1.002662835242e+006 1.002662835242e+006 1.002496404040e+006 1.002496404040e+006 1.002496404040e+006 1.002496404039e+006 1.002496404039e+006 1.002496404040e+006 1.002496404039e+006 1.002496404039e+006 1.002496404039e+006 1.002329973667e+006 1.002329973667e+006 1.002329973667e+006 1.002329973667e+006 1.002329973667e+006 1.002329973666e+006 1.002329973667e+006 1.002329973667e+006 1.002329973667e+006 1.002163544058e+006 1.002163544058e+006 1.002163544058e+006 1.002163544058e+006 1.002163544058e+006 1.002163544058e+006 1.002163544058e+006 1.002163544058e+006 1.002163544058e+006 1.001997115150e+006 1.001997115150e+006 1.001997115151e+006 1.001997115151e+006 1.001997115151e+006 1.001997115151e+006 1.001997115151e+006 1.001997115150e+006 1.001997115150e+006 1.001830686883e+006 1.001830686883e+006 1.001830686883e+006 1.001830686883e+006 1.001830686883e+006 1.001830686883e+006 1.001830686883e+006 1.001830686883e+006 1.001830686883e+006 1.001664259192e+006 1.001664259192e+006 1.001664259192e+006 1.001664259192e+006 1.001664259192e+006 1.001664259192e+006 1.001664259192e+006 1.001664259192e+006 1.001664259192e+006 1.001497832015e+006 1.001497832015e+006 1.001497832015e+006 1.001497832015e+006 1.001497832015e+006 1.001497832015e+006 1.001497832015e+006 1.001497832015e+006 1.001497832015e+006 1.001331405288e+006 1.001331405288e+006 1.001331405288e+006 1.001331405288e+006 1.001331405288e+006 1.001331405288e+006 1.001331405289e+006 1.001331405288e+006 1.001331405288e+006 1.001164978948e+006 1.001164978948e+006 1.001164978948e+006 1.001164978948e+006 1.001164978948e+006 1.001164978948e+006 1.001164978948e+006 1.001164978948e+006 1.001164978948e+006 1.000998552930e+006 1.000998552930e+006 1.000998552930e+006 1.000998552930e+006 1.000998552930e+006 1.000998552930e+006 1.000998552930e+006 1.000998552930e+006 1.000998552930e+006 1.000832127170e+006 1.000832127170e+006 1.000832127170e+006 1.000832127170e+006 1.000832127170e+006 1.000832127170e+006 1.000832127170e+006 1.000832127171e+006 1.000832127170e+006 1.000665701605e+006 1.000665701605e+006 1.000665701605e+006 1.000665701605e+006 1.000665701605e+006 1.000665701605e+006 1.000665701605e+006 1.000665701605e+006 1.000665701605e+006 1.000499276170e+006 1.000499276170e+006 1.000499276170e+006 1.000499276170e+006 1.000499276170e+006 1.000499276170e+006 1.000499276170e+006 1.000499276170e+006 1.000499276170e+006 1.000332850801e+006 1.000332850800e+006 1.000332850800e+006 1.000332850801e+006 1.000332850801e+006 1.000332850801e+006 1.000332850801e+006 1.000332850801e+006 1.000332850800e+006 1.000166425432e+006 1.000166425432e+006 1.000166425432e+006 1.000166425432e+006 1.000166425432e+006 1.000166425432e+006 1.000166425432e+006 1.000166425432e+006 1.000166425432e+006 1.000000000000e+006 1.000000000000e+006 1.000000000000e+006 1.000000000000e+006 1.000000000000e+006 1.000000000000e+006 1.000000000000e+006 1.000000000000e+006 1.000000000000e+006 
        </DataArray>
        <DataArray type="Float64" Name="MOLAR_FRACTION" format="ascii">