<?xml version="1.0"?>
<VTKFile type="UnstructuredGrid" version="0.1" byte_order="LittleEndian">
  <UnstructuredGrid>
    <Piece NumberOfPoints="909" NumberOfCells="800">
      <Points>
        <DataArray type="Float64" NumberOfComponents="3" format="ascii">
          0.000000000000e+000 0.000000000000e+000 0.000000000000e+000
          2.000000000000e+000 0.000000000000e+000 0.000000000000e+000
          2.000000000000e+000 2.500000000000e+000 0.000000000000e+000
          0.000000000000e+000 2.500000000000e+000 0.000000000000e+000
          2.000000000000e+000 5.000000000000e+000 0.000000000000e+000
          0.000000000000e+000 5.000000000000e+000 0.000000000000e+000
          2.000000000000e+000 7.500000000000e+000 0.000000000000e+000
          0.000000000000e+000 7.500000000000e+000 0.000000000000e+000
          2.000000000000e+000 1.000000000000e+001 0.000000000000e+000
          0.000000000000e+000 1.000000000000e+001 0.000000000000e+000
          2.000000000000e+000 1.250000000000e+001 0.000000000000e+000
          0.000000000000e+000 1.250000000000e+001 0.000000000000e+000
          2.000000000000e+000 1.500000000000e+001 0.000000000000e+000
          0.000000000000e+000 1.500000000000e+001 0.000000000000e+000
          2.000000000000e+000 1.750000000000e+001 0.000000000000e+000
          0.000000000000e+000 1.750000000000e+001 0.000000000000e+000
          2.000000000000e+000 2.000000000000e+001 0.000000000000e+000
          0.000000000000e+000 2.000000000000e+001 0.000000000000e+000
          4.000000000000e+000 0.000000000000e+000 0.000000000000e+000
          4.000000000000e+000 2.500000000000e+000 0.000000000000e+000
          4.000000000000e+000 5.000000000000e+000 0.000000000000e+000
          4.000000000000e+000 7.500000000000e+000 0.000000000000e+000
          4.000000000000e+000 1.000000000000e+001 0.000000000000e+000
          4.000000000000e+000 1.250000000000e+001 0.000000000000e+000
          4.000000000000e+000 1.500000000000e+001 0.000000000000e+000
          4.000000000000e+000 1.750000000000e+001 0.000000000000e+000
          4.000000000000e+000 2.000000000000e+001 0.000000000000e+000
          6.000000000000e+000 0.000000000000e+000 0.000000000000e+000
          6.000000000000e+000 2.500000000000e+000 0.000000000000e+000
          6.000000000000e+000 5.000000000000e+000 0.000000000000e+000
          6.000000000000e+000 7.500000000000e+000 0.000000000000e+000
          6.000000000000e+000 1.000000000000e+001 0.000000000000e+000
          6.000000000000e+000 1.250000000000e+001 0.000000000000e+000
          6.000000000000e+000 1.500000000000e+001 0.000000000000e+000
          6.000000000000e+000 1.750000000000e+001 0.000000000000e+000
          6.000000000000e+000 2.000000000000e+001 0.000000000000e+000
          8.000000000000e+000 0.000000000000e+000 0.000000000000e+000
          8.000000000000e+000 2.500000000000e+000 0.000000000000e+000
          8.000000000000e+000 5.000000000000e+000 0.000000000000e+000
          8.000000000000e+000 7.500000000000e+000 0.000000000000e+000
          8.000000000000e+000 1.000000000000e+001 0.000000000000e+000
          8.000000000000e+000 1.250000000000e+001 0.000000000000e+000
          8.000000000000e+000 1.500000000000e+001 0.000000000000e+000
          8.000000000000e+000 1.750000000000e+001 0.000000000000e+000
          8.000000000000e+000 2.000000000000e+001 0.000000000000e+000
          1.000000000000e+001 0.000000000000e+000 0.000000000000e+000
          1.000000000000e+001 2.500000000000e+000 0.000000000000e+000
          1.000000000000e+001 5.000000000000e+000 0.000000000000e+000
          1.000000000000e+001 7.500000000000e+000 0.000000000000e+000
          1.000000000000e+001 1.000000000000e+001 0.000000000000e+000
          1.000000000000e+001 1.250000000000e+001 0.000000000000e+000
          1.000000000000e+001 1.500000000000e+001 0.000000000000e+000
          1.000000000000e+001 1.750000000000e+001 0.000000000000e+000
          1.000000000000e+001 2.000000000000e+001 0.000000000000e+000
          1.200000000000e+001 0.000000000000e+000 0.000000000000e+000
          1.200000000000e+001 2.500000000000e+000 0.000000000000e+000
          1.200000000000e+001 5.000000000000e+000 0.000000000000e+000
          1.200000000000e+001 7.500000000000e+000 0.000000000000e+000
          1.200000000000e+001 1.000000000000e+001 0.000000000000e+000
          1.200000000000e+001 1.250000000000e+001 0.000000000000e+000
          1.200000000000e+001 1.500000000000e+001 0.000000000000e+000
          1.200000000000e+001 1.750000000000e+001 0.000000000000e+000
          1.200000000000e+001 2.000000000000e+001 0.000000000000e+000
          1.400000000000e+001 0.000000000000e+000 0.000000000000e+000
          1.400000000000e+001 2.500000000000e+000 0.000000000000e+000
          1.400000000000e+001 5.000000000000e+000 0.000000000000e+000
          1.400000000000e+001 7.500000000000e+000 0.000000000000e+000
          1.400000000000e+001 1.000000000000e+001 0.000000000000e+000
          1.400000000000e+001 1.250000000000e+001 0.000000000000e+000
          1.400000000000e+001 1.500000000000e+001 0.000000000000e+000
          1.400000000000e+001 1.750000000000e+001 0.000000000000e+000
          1.400000000000e+001 2.000000000000e+001 0.000000000000e+000
          1.600000000000e+001 0.000000000000e+000 0.000000000000e+000
          1.600000000000e+001 2.500000000000e+000 0.000000000000e+000
          1.600000000000e+001 5.000000000000e+000 0.000000000000e+000
          1.600000000000e+001 7.500000000000e+000 0.000000000000e+000
          1.600000000000e+001 1.000000000000e+001 0.000000000000e+000
          1.600000000000e+001 1.250000000000e+001 0.000000000000e+000
          1.600000000000e+001 1.500000000000e+001 0.000000000000e+000
          1.600000000000e+001 1.750000000000e+001 0.000000000000e+000
          1.600000000000e+001 2.000000000000e+001 0.000000000000e+000
          1.800000000000e+001 0.000000000000e+000 0.000000000000e+000
          1.800000000000e+001 2.500000000000e+000 0.000000000000e+000
          1.800000000000e+001 5.000000000000e+000 0.000000000000e+000
          1.800000000000e+001 7.500000000000e+000 0.000000000000e+000
          1.800000000000e+001 1.000000000000e+001 0.000000000000e+000
          1.800000000000e+001 1.250000000000e+001 0.000000000000e+000
          1.800000000000e+001 1.500000000000e+001 0.000000000000e+000
          1.800000000000e+001 1.750000000000e+001 0.000000000000e+000
          1.800000000000e+001 2.000000000000e+001 0.000000000000e+000
          2.000000000000e+001 0.000000000000e+000 0.000000000000e+000
          2.000000000000e+001 2.500000000000e+000 0.000000000000e+000
          2.000000000000e+001 5.000000000000e+000 0.000000000000e+000
          2.000000000000e+001 7.500000000000e+000 0.000000000000e+000
          2.000000000000e+001 1.000000000000e+001 0.000000000000e+000
          2.000000000000e+001 1.250000000000e+001 0.000000000000e+000
          2.000000000000e+001 1.500000000000e+001 0.000000000000e+000
          2.000000000000e+001 1.750000000000e+001 0.000000000000e+000
          2.000000000000e+001 2.000000000000e+001 0.000000000000e+000
          2.200000000000e+001 0.000000000000e+000 0.000000000000e+000
          2.200000000000e+001 2.500000000000e+000 0.000000000000e+000
          2.200000000000e+001 5.000000000000e+000 0.000000000000e+000
          2.200000000000e+001 7.500000000000e+000 0.000000000000e+000
          2.200000000000e+001 1.000000000000e+001 0.000000000000e+000
          2.200000000000e+001 1.250000000000e+001 0.000000000000e+000
          2.200000000000e+001 1.500000000000e+001 0.000000000000e+000
          2.200000000000e+001 1.750000000000e+001 0.000000000000e+000
          2.200000000000e+001 2.000000000000e+001 0.000000000000e+000
          2.400000000000e+001 0.000000000000e+000 0.000000000000e+000
          2.400000000000e+001 2.500000000000e+000 0.000000000000e+000
          2.400000000000e+001 5.000000000000e+000 0.000000000000e+000
          2.400000000000e+001 7.500000000000e+000 0.000000000000e+000
          2.400000000000e+001 1.000000000000e+001 0.000000000000e+000
          2.400000000000e+001 1.250000000000e+001 0.000000000000e+000
          2.400000000000e+001 1.500000000000e+001 0.000000000000e+000
          2.400000000000e+001 1.750000000000e+001 0.000000000000e+000
          2.400000000000e+001 2.000000000000e+001 0.000000000000e+000
          2.600000000000e+001 0.000000000000e+000 0.000000000000e+000
          2.600000000000e+001 2.500000000000e+000 0.000000000000e+000
          2.600000000000e+001 5.000000000000e+000 0.000000000000e+000
          2.600000000000e+001 7.500000000000e+000 0.000000000000e+000
          2.600000000000e+001 1.000000000000e+001 0.000000000000e+000
          2.600000000000e+001 1.250000000000e+001 0.000000000000e+000
          2.600000000000e+001 1.500000000000e+001 0.000000000000e+000
          2.600000000000e+001 1.750000000000e+001 0.000000000000e+000
          2.600000000000e+001 2.000000000000e+001 0.000000000000e+000
          2.800000000000e+001 0.000000000000e+000 0.000000000000e+000
          2.800000000000e+001 2.500000000000e+000 0.000000000000e+000
          2.800000000000e+001 5.000000000000e+000 0.000000000000e+000
          2.800000000000e+001 7.500000000000e+000 0.000000000000e+000
          2.800000000000e+001 1.000000000000e+001 0.000000000000e+000
          2.800000000000e+001 1.250000000000e+001 0.000000000000e+000
          2.800000000000e+001 1.500000000000e+001 0.000000000000e+000
          2.800000000000e+001 1.750000000000e+001 0.000000000000e+000
          2.800000000000e+001 2.000000000000e+001 0.000000000000e+000
          3.000000000000e+001 0.000000000000e+000 0.000000000000e+000
          3.000000000000e+001 2.500000000000e+000 0.000000000000e+000
          3.000000000000e+001 5.000000000000e+000 0.000000000000e+000
          3.000000000000e+001 7.500000000000e+000 0.000000000000e+000
[...]
      <PointData Scalars="LIQUID_PRESSURE">
        <DataArray type="Float64" Name="LIQUID_PRESSURE" format="ascii">
          1.141989872297e+006 1.141986884501e+006 1.141986884520e+006 1.141989872180e+006 1.141986884550e+006 1.141989872099e+006 1.141986884504e+006 1.141989872205e+006 1.141986884528e+006 1.141989872168e+006 1.141986884563e+006 1.141989871985e+006 1.141986884517e+006 1.141989871900e+006 1.141986884516e+006 1.141989871804e+006 1.141986884549e+006 1.141989871710e+006 1.141885346286e+006 1.141885346354e+006 1.141885346395e+006 1.141885346328e+006 1.141885346349e+006 1.141885346435e+006 1.141885346417e+006 1.141885346450e+006 1.141885346503e+006 1.141721128131e+006 1.141721128183e+006 1.141721128217e+006 1.141721128166e+006 1.141721128183e+006 1.141721128239e+006 1.141721128232e+006 1.141721128250e+006 1.141721128279e+006 1.141552465164e+006 1.141552465198e+006 1.141552465227e+006 1.141552465185e+006 1.141552465186e+006 1.141552465218e+006 1.141552465213e+006 1.141552465214e+006 1.141552465230e+006 1.141267470763e+006 1.141267470785e+006 1.141267470799e+006 1.141267470779e+006 1.141267470768e+006 1.141267470792e+006 1.141267470785e+006 1.141267470780e+006 1.141267470791e+006 1.140951286295e+006 1.140951286309e+006 1.140951286319e+006 1.140951286305e+006 1.140951286299e+006 1.140951286308e+006 1.140951286305e+006 1.140951286304e+006 1.140951286304e+006 1.140601359289e+006 1.140601359294e+006 1.140601359298e+006 1.140601359287e+006 1.140601359288e+006 1.140601359286e+006 1.140601359288e+006 1.140601359285e+006 1.140601359286e+006 1.140147454279e+006 1.140147454278e+006 1.140147454280e+006 1.140147454272e+006 1.140147454271e+006 1.140147454272e+006 1.140147454272e+006 1.140147454275e+006 1.140147454269e+006 1.139675841111e+006 1.139675841110e+006 1.139675841110e+006 1.139675841105e+006 1.139675841102e+006 1.139675841100e+006 1.139675841101e+006 1.139675841101e+006 1.139675841102e+006 1.139117895930e+006 1.139117895933e+006 1.139117895932e+006 1.139117895927e+006 1.139117895925e+006 1.139117895925e+006 1.139117895924e+006 1.139117895926e+006 1.139117895926e+006 1.138494681234e+006 1.138494681238e+006 1.138494681236e+006 1.138494681234e+006 1.138494681230e+006 1.138494681230e+006 1.138494681237e+006 1.138494681233e+006 1.138494681236e+006 1.137827131302e+006 1.137827131303e+006 1.137827131303e+006 1.137827131303e+006 1.137827131301e+006 1.137827131304e+006 1.137827131300e+006 1.137827131302e+006 1.137827131301e+006 1.137083306101e+006 1.137083306101e+006 1.137083306106e+006 1.137083306106e+006 1.137083306108e+006 1.137083306106e+006 1.137083306104e+006 1.137083306102e+006 1.137083306102e+006 1.136311671511e+006 1.136311671515e+006 1.136311671513e+006 1.136311671518e+006 1.136311671516e+006 1.136311671518e+006 1.136311671517e+006 1.136311671517e+006 1.136311671514e+006 1.135461199243e+006 1.135461199244e+006 1.135461199246e+006 1.135461199245e+006 1.135461199248e+006 1.135461199245e+006 1.135461199247e+006 1.135461199245e+006 1.135461199244e+006 1.134557453492e+006 1.134557453488e+006 1.134557453489e+006 1.134557453490e+006 1.134557453488e+006 1.134557453493e+006 1.134557453491e+006 1.134557453491e+006 1.134557453490e+006 1.133579748094e+006 1.133579748094e+006 1.133579748093e+006 1.133579748095e+006 1.133579748095e+006 1.133579748095e+006 1.133579748096e+006 1.133579748098e+006 1.133579748095e+006 1.132533831485e+006 1.132533831484e+006 1.132533831483e+006 1.132533831484e+006 1.132533831485e+006 1.132533831487e+006 1.132533831486e+006 1.132533831486e+006 1.132533831487e+006 1.131444688699e+006 1.131444688699e+006 1.131444688698e+006 1.131444688698e+006 1.131444688699e+006 1.131444688698e+006 1.131444688699e+006 1.131444688697e+006 1.131444688700e+006 1.130275195993e+006 1.130275195991e+006 1.130275195992e+006 1.130275195991e+006 1.130275195991e+006 1.130275195992e+006 1.130275195990e+006 1.130275195990e+006 1.130275195990e+006 1.129061883248e+006 1.129061883247e+006 1.129061883249e+006 1.129061883246e+006 1.129061883246e+006 1.129061883245e+006 1.129061883245e+006 1.129061883246e+006 1.129061883244e+006 1.127786429732e+006 1.127786429729e+006 1.127786429731e+006 1.127786429731e+006 1.127786429730e+006 1.127786429730e+006 1.127786429730e+006 1.127786429730e+006 1.127786429730e+006 1.126444884487e+006 1.126444884487e+006 1.126444884486e+006 1.126444884487e+006 1.126444884485e+006 1.126444884486e+006 1.126444884485e+006 1.126444884486e+006 1.126444884486e+006 1.125032466193e+006 1.125032466192e+006 1.125032466193e+006 1.125032466191e+006 1.125032466192e+006 1.125032466191e+006 1.125032466192e+006 1.125032466191e+006 1.125032466191e+006 1.123544577661e+006 1.123544577661e+006 1.123544577662e+006 1.123544577663e+006 1.123544577662e+006 1.123544577662e+006 1.123544577661e+006 1.123544577662e+006 1.123544577661e+006 1.122002071470e+006 1.122002071469e+006 1.122002071470e+006 1.122002071471e+006 1.122002071470e+006 1.122002071470e+006 1.122002071469e+006 1.122002071471e+006 1.122002071469e+006 1.120398150090e+006 1.120398150090e+006 1.120398150091e+006 1.120398150091e+006 1.120398150091e+006 1.120398150091e+006 1.120398150091e+006 1.120398150092e+006 1.120398150092e+006 1.118742860226e+006 1.118742860228e+006 1.118742860226e+006 1.118742860227e+006 1.118742860226e+006 1.118742860227e+006 1.118742860227e+006 1.118742860227e+006 1.118742860227e+006 1.117025754895e+006 1.117025754895e+006 1.117025754895e+006 1.117025754895e+006 1.117025754894e+006 1.117025754895e+006 1.117025754895e+006 1.117025754895e+006 1.117025754896e+006 1.115237804607e+006 1.115237804607e+006 1.115237804607e+006 1.115237804607e+006 1.115237804607e+006 1.115237804607e+006 1.115237804608e+006 1.115237804608e+006 1.115237804609e+006 1.113382666915e+006 1.113382666915e+006 1.113382666915e+006 1.113382666914e+006 1.113382666914e+006 1.113382666915e+006 1.113382666916e+006 1.113382666916e+006 1.113382666917e+006 1.111462906611e+006 1.111462906611e+006 1.111462906611e+006 1.111462906611e+006 1.111462906611e+006 1.111462906611e+006 1.111462906612e+006 1.111462906612e+006 1.111462906612e+006 1.109491938982e+006 1.109491938982e+006 1.109491938982e+006 1.109491938982e+006 1.109491938982e+006 1.109491938983e+006 1.109491938983e+006 1.109491938983e+006 1.109491938982e+006 1.107482243662e+006 1.107482243662e+006 1.107482243662e+006 1.107482243662e+006 1.107482243662e+006 1.107482243662e+006 1.107482243662e+006 1.107482243662e+006 1.107482243661e+006 1.105446349429e+006 1.105446349429e+006 1.105446349429e+006 1.105446349429e+006 1.105446349428e+006 1.105446349429e+006 1.105446349429e+006 1.105446349428e+006 1.105446349428e+006 1.103411601650e+006 1.103411601650e+006 1.103411601650e+006 1.103411601650e+006 1.103411601650e+006 1.103411601650e+006 1.103411601650e+006 1.103411601649e+006 1.103411601649e+006 1.101485741056e+006 1.101485741056e+006 1.101485741055e+006 1.101485741055e+006 1.101485741055e+006 1.101485741055e+006 1.101485741055e+006 1.101485741055e+006 1.101485741055e+006 1.099872836579e+006 1.099872836579e+006 1.099872836578e+006 1.099872836579e+006 1.099872836579e+006 1.099872836579e+006 1.099872836579e+006 1.099872836578e+006 1.099872836578e+006 1.098260039633e+006 1.098260039633e+006 1.098260039633e+006 1.098260039633e+006 1.098260039633e+006 1.098260039633e+006 1.098260039633e+006 1.098260039633e+006 1.098260039633e+006 1.096647345422e+006 1.096647345422e+006 1.096647345422e+006 1.096647345422e+006 1.096647345422e+006 1.096647345422e+006 1.096647345422e+006 1.096647345422e+006 1.096647345422e+006 1.095034750192e+006 1.095034750192e+006 1.095034750192e+006 1.095034750192e+006 1.095034750192e+006 1.095034750192e+006 1.095034750192e+006 1.095034750192e+006 1.095034750192e+006 1.093422250931e+006 1.093422250931e+006 1.093422250931e+006 1.093422250931e+006 1.093422250932e+006 1.093422250932e+006 1.093422250932e+006 1.093422250931e+006 1.093422250931e+006 1.091809845109e+006 1.091809845109e+006 1.091809845109e+006 1.091809845110e+006 1.091809845110e+006 1.091809845110e+006 1.091809845110e+006 1.091809845109e+006 1.091809845109e+006 1.090197530496e+006 1.090197530496e+006 1.090197530496e+006 1.090197530496e+006 1.090197530496e+006 1.090197530496e+006 1.090197530496e+006 1.090197530496e+006 1.090197530496e+006 1.088585305039e+006 1.088585305039e+006 1.088585305040e+006 1.088585305040e+006 1.088585305040e+006 1.088585305040e+006 1.088585305040e+006 1.088585305040e+006 1.088585305040e+006 1.086973166794e+006 1.086973166795e+006 1.086973166794e+006 1.086973166795e+006 1.086973166794e+006 1.086973166795e+006 1.086973166795e+006 1.086973166795e+006 1.086973166795e+006 1.085361113876e+006 1.085361113877e+006 1.085361113877e+006 1.085361113877e+006 1.085361113877e+006 1.085361113877e+006 1.085361113877e+006 1.085361113877e+006 1.085361113877e+006 1.083749144438e+006 1.083749144438e+006 1.083749144439e+006 1.083749144438e+006 1.083749144438e+006 1.083749144439e+006 1.083749144439e+006 1.083749144439e+006 1.083749144439e+006 1.082137256656e+006 1.082137256657e+006 1.082137256657e+006 1.082137256657e+006 1.082137256657e+006 1.082137256657e+006 1.082137256657e+006 1.082137256657e+006 1.082137256657e+006 1.080525448723e+006 1.080525448723e+006 1.080525448723e+006 1.080525448723e+006 1.080525448723e+006 1.080525448724e+006 1.080525448724e+006 1.080525448724e+006 1.080525448724e+006 1.078913718843e+006 1.078913718842e+006 1.078913718843e+006 1.078913718843e+006 1.078913718843e+006 1.078913718843e+006 1.078913718843e+006 1.078913718843e+006 1.078913718843e+006 1.077302065230e+006 1.077302065230e+006 1.077302065230e+006 1.077302065230e+006 1.077302065231e+006 1.077302065231e+006 1.077302065231e+006 1.077302065231e+006 1.077302065231e+006 1.075690486112e+006 1.075690486112e+006 1.075690486112e+006 1.075690486112e+006 1.075690486112e+006 1.075690486112e+006 1.075690486112e+006 1.075690486112e+006 1.075690486112e+006 1.074078979724e+006 1.074078979724e+006 1.074078979724e+006 1.074078979724e+006 1.074078979724e+006 1.074078979724e+006 1.074078979724e+006 1.074078979724e+006 1.074078979724e+006 1.072467544313e+006 1.072467544313e+006 1.072467544313e+006 1.072467544313e+006 1.072467544313e+006 1.072467544313e+006 1.072467544313e+006 1.072467544313e+006 1.072467544313e+006 1.070856178138e+006 1.070856178138e+006 1.070856178138e+006 1.070856178138e+006 1.070856178139e+006 1.070856178138e+006 1.070856178138e+006 1.070856178138e+006 1.070856178138e+006 1.069244879469e+006 1.069244879469e+006 1.069244879469e+006 1.069244879469e+006 1.069244879469e+006 1.069244879469e+006 1.069244879469e+006 1.069244879469e+006 1.069244879469e+006 1.067633646586e+006 1.067633646586e+006 1.067633646586e+006 1.067633646586e+006 1.067633646586e+006 1.067633646586e+006 1.067633646585e+006 1.067633646586e+006 1.067633646586e+006 1.066022477782e+006 1.066022477781e+006 1.066022477782e+006 1.066022477782e+006 1.066022477782e+006 1.066022477781e+006 1.066022477781e+006 1.066022477781e+006 1.066022477781e+006 1.064411371361e+006 1.064411371361e+006 1.064411371361e+006 1.064411371361e+006 1.064411371361e+006 1.064411371361e+006 1.064411371361e+006 1.064411371361e+006 1.064411371361e+006 1.062800325640e+006 1.062800325640e+006 1.062800325640e+006 1.062800325640e+006 1.062800325639e+006 1.062800325639e+006 1.062800325639e+006 1.062800325639e+006 1.062800325639e+006 1.061189338946e+006 1.061189338946e+006 1.061189338946e+006 1.061189338945e+006 1.061189338945e+006 1.061189338945e+006 1.061189338945e+006 1.061189338945e+006 1.061189338945e+006 1.059578409617e+006 1.059578409617e+006 1.059578409617e+006 1.059578409617e+006 1.059578409617e+006 1.059578409617e+006 1.059578409617e+006 1.059578409617e+006 1.059578409617e+006 1.057967536006e+006 1.057967536006e+006 1.057967536006e+006 1.057967536006e+006 1.057967536005e+006 1.057967536005e+006 1.057967536005e+006 1.057967536005e+006 1.057967536005e+006 1.056356716472e+006 1.056356716472e+006 1.056356716472e+006 1.056356716472e+006 1.056356716472e+006 1.056356716472e+006 1.056356716471e+006 1.056356716471e+006 1.056356716471e+006 1.054745949388e+006 1.054745949387e+006 1.054745949387e+006 1.054745949387e+006 1.054745949387e+006 1.054745949387e+006 1.054745949387e+006 1.054745949387e+006 1.054745949387e+006 1.053135233136e+006 1.053135233136e+006 1.053135233136e+006 1.053135233135e+006 1.053135233135e+006 1.053135233135e+006 1.053135233135e+006 1.053135233135e+006 1.053135233135e+006 1.051524566108e+006 1.051524566108e+006 1.051524566108e+006 1.051524566108e+006 1.051524566108e+006 1.051524566108e+006 1.051524566108e+006 1.051524566108e+006 1.051524566108e+006 1.049913946709e+006 1.049913946709e+006 1.049913946709e+006 1.049913946709e+006 1.049913946708e+006 1.049913946708e+006 1.049913946708e+006 1.049913946708e+006 1.049913946708e+006 1.048303373348e+006 1.048303373348e+006 1.048303373348e+006 1.048303373348e+006 1.048303373348e+006 1.048303373347e+006 1.048303373347e+006 1.048303373347e+006 1.048303373347e+006 1.046692844447e+006 1.046692844447e+006 1.046692844447e+006 1.046692844447e+006 1.046692844447e+006 1.046692844446e+006 1.046692844446e+006 1.046692844446e+006 1.046692844446e+006 1.045082358436e+006 1.045082358436e+006 1.045082358436e+006 1.045082358436e+006 1.045082358435e+006 1.045082358435e+006 1.045082358435e+006 1.045082358435e+006 1.045082358435e+006 1.043471913752e+006 1.043471913752e+006 1.043471913752e+006 1.043471913752e+006 1.043471913752e+006 1.043471913752e+006 1.043471913752e+006 1.043471913752e+006 1.043471913752e+006 1.041861508844e+006 1.041861508844e+006 1.041861508844e+006 1.041861508844e+006 1.041861508844e+006 1.041861508844e+006 1.041861508844e+006 1.041861508844e+006 1.041861508844e+006 1.040251142164e+006 1.040251142164e+006 1.040251142164e+006 1.040251142164e+006 1.040251142164e+006 1.040251142164e+006 1.040251142164e+006 1.040251142164e+006 1.040251142164e+006 1.038640812175e+006 1.038640812175e+006 1.038640812175e+006 1.038640812175e+006 1.038640812175e+006 1.038640812175e+006 1.038640812174e+006 1.038640812174e+006 1.038640812174e+006 1.037030517345e+006 1.037030517345e+006 1.037030517345e+006 1.037030517344e+006 1.037030517344e+006 1.037030517344e+006 1.037030517344e+006 1.037030517344e+006 1.037030517344e+006 1.035420256149e+006 1.035420256149e+006 1.035420256149e+006 1.035420256149e+006 1.035420256149e+006 1.035420256149e+006 1.035420256149e+006 1.035420256149e+006 1.035420256149e+006 1.033810027071e+006 1.033810027071e+006 1.033810027071e+006 1.033810027071e+006 1.033810027071e+006 1.033810027071e+006 1.033810027071e+006 1.033810027071e+006 1.033810027071e+006 1.032199828598e+006 1.032199828598e+006 1.032199828598e+006 1.032199828598e+006 1.032199828598e+006 1.032199828598e+006 1.032199828598e+006 1.032199828598e+006 1.032199828598e+006 1.030589659225e+006 1.030589659225e+006 1.030589659225e+006 1.030589659225e+006 1.030589659225e+006 1.030589659225e+006 1.030589659225e+006 1.030589659225e+006 1.030589659225e+006 1.028979517451e+006 1.028979517451e+006 1.028979517451e+006 1.028979517451e+006 1.028979517451e+006 1.028979517451e+006 1.028979517451e+006 1.028979517451e+006 1.028979517451e+006 1.027369401782e+006 1.027369401782e+006 1.027369401782e+006 1.027369401782e+006 1.027369401782e+006 1.027369401782e+006 1.027369401782e+006 1.027369401782e+006 1.027369401782e+006 1.025759310728e+006 1.025759310728e+006 1.025759310728e+006 1.025759310728e+006 1.025759310728e+006 1.025759310728e+006 1.025759310728e+006 1.025759310728e+006 1.025759310728e+006 1.024149242802e+006 1.024149242802e+006 1.024149242802e+006 1.024149242802e+006 1.024149242802e+006 1.024149242802e+006 1.024149242802e+006 1.024149242802e+006 1.024149242802e+006 1.022539196525e+006 1.022539196525e+006 1.022539196525e+006 1.022539196525e+006 1.022539196525e+006 1.022539196525e+006 1.022539196525e+006 1.022539196525e+006 1.022539196525e+006 1.020929170419e+006 1.020929170419e+006 1.020929170419e+006 1.020929170419e+006 1.020929170419e+006 1.020929170419e+006 1.020929170419e+006 1.020929170419e+006 1.020929170419e+006 1.019319163011e+006 1.019319163011e+006 1.019319163011e+006 1.019319163011e+006 1.019319163011e+006 1.019319163011e+006 1.019319163011e+006 1.019319163011e+006 1.019319163011e+006 1.017709172831e+006 1.017709172831e+006 1.017709172831e+006 1.017709172831e+006 1.017709172831e+006 1.017709172831e+006 1.017709172831e+006 1.017709172831e+006 1.017709172831e+006 1.016099198412e+006 1.016099198412e+006 1.016099198412e+006 1.016099198412e+006 1.016099198412e+006 1.016099198412e+006 1.016099198412e+006 1.016099198412e+006 1.016099198412e+006 1.014489238290e+006 1.014489238290e+006 1.014489238290e+006 1.014489238290e+006 1.014489238290e+006 1.014489238290e+006 1.014489238290e+006 1.014489238290e+006 1.014489238290e+006 1.012879291004e+006 1.012879291004e+006 1.012879291004e+006 1.012879291004e+006 1.012879291004e+006 1.012879291004e+006 1.012879291004e+006 1.012879291004e+006 1.012879291004e+006 1.011269355094e+006 1.011269355094e+006 1.011269355094e+006 1.011269355094e+006 1.011269355094e+006 1.011269355094e+006 1.011269355094e+006 1.011269355094e+006 1.011269355094e+006 1.009659429103e+006 1.009659429103e+006 1.009659429103e+006 1.009659429103e+006 1.009659429103e+006 1.009659429103e+006 1.009659429103e+006 1.009659429103e+006 1.009659429103e+006 1.008049511575e+006 1.008049511575e+006 1.008049511575e+006 1.008049511575e+006 1.008049511575e+006 1.008049511575e+006 1.008049511575e+006 1.008049511575e+006 1.008049511575e+006 1.006439601056e+006 1.006439601056e+006 1.006439601056e+006 1.006439601056e+006 1.006439601056e+006 1.006439601056e+006 1.006439601056e+006 1.006439601056e+006 1.006439601056e+006 1.004829696092e+006 1.004829696092e+006 1.004829696092e+006 1.004829696092e+006 1.004829696092e+006 1.004829696092e+006 1.004829696092e+006 1.004829696092e+006 1.004829696092e+006 1.003219795229e+006 1.003219795229e+006 1.003219795229e+006 1.003219795229e+006 1.003219795229e+006 1.003219795229e+006 1.003219795229e+006 1.003219795229e+006 1.003219795229e+006 1.001609897016e+006 1.001609897016e+006 1.001609897016e+006 1.001609897016e+006 1.001609897016e+006 1.001609897016e+006 1.001609897016e+006 1.001609897016e+006 1.001609897016e+006 1.000000000000e+006 1.000000000000e+006 1.000000000000e+006 1.000000000000e+006 1.000000000000e+006 1.000000000000e+006 1.000000000000e+006 1.000000000000e+006 1.000000000000e+006 
        </DataArray>
        <DataArray type="Float64" Name="MOLAR_FRACTION" format="ascii">