<?xml version="1.0"?>
<VTKFile type="UnstructuredGrid" version="0.1" byte_order="LittleEndian">
  <UnstructuredGrid>
    <Piece NumberOfPoints="909" NumberOfCells="800">
      <Points>
        <DataArray type="Float64" NumberOfComponents="3" format="ascii">
          0.000000000000e+000 0.000000000000e+000 0.000000000000e+000
          2.000000000000e+000 0.000000000000e+000 0.000000000000e+000
          2.000000000000e+000 2.500000000000e+000 0.000000000000e+000
          0.000000000000e+000 2.500000000000e+000 0.000000000000e+000
          2.000000000000e+000 5.000000000000e+000 0.000000000000e+000
          0.000000000000e+000 5.000000000000e+000 0.000000000000e+000
          2.000000000000e+000 7.500000000000e+000 0.000000000000e+000
          0.000000000000e+000 7.500000000000e+000 0.000000000000e+000
          2.000000000000e+000 1.000000000000e+001 0.000000000000e+000
          0.000000000000e+000 1.000000000000e+001 0.000000000000e+000
          2.000000000000e+000 1.250000000000e+001 0.000000000000e+000
          0.000000000000e+000 1.250000000000e+001 0.000000000000e+000
          2.000000000000e+000 1.500000000000e+001 0.000000000000e+000
          0.000000000000e+000 1.500000000000e+001 0.000000000000e+000
          2.000000000000e+000 1.750000000000e+001 0.000000000000e+000
          0.000000000000e+000 1.750000000000e+001 0.000000000000e+000
          2.000000000000e+000 2.000000000000e+001 0.000000000000e+000
          0.000000000000e+000 2.000000000000e+001 0.000000000000e+000
          4.000000000000e+000 0.000000000000e+000 0.000000000000e+000
          4.000000000000e+000 2.500000000000e+000 0.000000000000e+000
          4.000000000000e+000 5.000000000000e+000 0.000000000000e+000
          4.000000000000e+000 7.500000000000e+000 0.000000000000e+000
          4.000000000000e+000 1.000000000000e+001 0.000000000000e+000
          4.000000000000e+000 1.250000000000e+001 0.000000000000e+000
          4.000000000000e+000 1.500000000000e+001 0.000000000000e+000
          4.000000000000e+000 1.750000000000e+001 0.000000000000e+000
          4.000000000000e+000 2.000000000000e+001 0.000000000000e+000
          6.000000000000e+000 0.000000000000e+000 0.000000000000e+000
          6.000000000000e+000 2.500000000000e+000 0.000000000000e+000
          6.000000000000e+000 5.000000000000e+000 0.000000000000e+000
          6.000000000000e+000 7.500000000000e+000 0.000000000000e+000
          6.000000000000e+000 1.000000000000e+001 0.000000000000e+000
          6.000000000000e+000 1.250000000000e+001 0.000000000000e+000
          6.000000000000e+000 1.500000000000e+001 0.000000000000e+000
          6.000000000000e+000 1.750000000000e+001 0.000000000000e+000
          6.000000000000e+000 2.000000000000e+001 0.000000000000e+000
          8.000000000000e+000 0.000000000000e+000 0.000000000000e+000
          8.000000000000e+000 2.500000000000e+000 0.000000000000e+000
          8.000000000000e+000 5.000000000000e+000 0.000000000000e+000
          8.000000000000e+000 7.500000000000e+000 0.000000000000e+000
          8.000000000000e+000 1.000000000000e+001 0.000000000000e+000
          8.000000000000e+000 1.250000000000e+001 0.000000000000e+000
          8.000000000000e+000 1.500000000000e+001 0.000000000000e+000
          8.000000000000e+000 1.750000000000e+001 0.000000000000e+000
          8.000000000000e+000 2.000000000000e+001 0.000000000000e+000
          1.000000000000e+001 0.000000000000e+000 0.000000000000e+000
          1.000000000000e+001 2.500000000000e+000 0.000000000000e+000
          1.000000000000e+001 5.000000000000e+000 0.000000000000e+000
          1.000000000000e+001 7.500000000000e+000 0.000000000000e+000
          1.000000000000e+001 1.000000000000e+001 0.000000000000e+000
          1.000000000000e+001 1.250000000000e+001 0.000000000000e+000
          1.000000000000e+001 1.500000000000e+001 0.000000000000e+000
          1.000000000000e+001 1.750000000000e+001 0.000000000000e+000
          1.000000000000e+001 2.000000000000e+001 0.000000000000e+000
          1.200000000000e+001 0.000000000000e+000 0.000000000000e+000
          1.200000000000e+001 2.500000000000e+000 0.000000000000e+000
          1.200000000000e+001 5.000000000000e+000 0.000000000000e+000
          1.200000000000e+001 7.500000000000e+000 0.000000000000e+000
          1.200000000000e+001 1.000000000000e+001 0.000000000000e+000
          1.200000000000e+001 1.250000000000e+001 0.000000000000e+000
          1.200000000000e+001 1.500000000000e+001 0.000000000000e+000
          1.200000000000e+001 1.750000000000e+001 0.000000000000e+000
          1.200000000000e+001 2.000000000000e+001 0.000000000000e+000
          1.400000000000e+001 0.000000000000e+000 0.000000000000e+000
          1.400000000000e+001 2.500000000000e+000 0.000000000000e+000
          1.400000000000e+001 5.000000000000e+000 0.000000000000e+000
          1.400000000000e+001 7.500000000000e+000 0.000000000000e+000
          1.400000000000e+001 1.000000000000e+001 0.000000000000e+000
          1.400000000000e+001 1.250000000000e+001 0.000000000000e+000
          1.400000000000e+001 1.500000000000e+001 0.000000000000e+000
          1.400000000000e+001 1.750000000000e+001 0.000000000000e+000
          1.400000000000e+001 2.000000000000e+001 0.000000000000e+000
          1.600000000000e+001 0.000000000000e+000 0.000000000000e+000
          1.600000000000e+001 2.500000000000e+000 0.000000000000e+000
          1.600000000000e+001 5.000000000000e+000 0.000000000000e+000
          1.600000000000e+001 7.500000000000e+000 0.000000000000e+000
          1.600000000000e+001 1.000000000000e+001 0.000000000000e+000
          1.600000000000e+001 1.250000000000e+001 0.000000000000e+000
          1.600000000000e+001 1.500000000000e+001 0.000000000000e+000
          1.600000000000e+001 1.750000000000e+001 0.000000000000e+000
          1.600000000000e+001 2.000000000000e+001 0.000000000000e+000
          1.800000000000e+001 0.000000000000e+000 0.000000000000e+000
          1.800000000000e+001 2.500000000000e+000 0.000000000000e+000
          1.800000000000e+001 5.000000000000e+000 0.000000000000e+000
          1.800000000000e+001 7.500000000000e+000 0.000000000000e+000
          1.800000000000e+001 1.000000000000e+001 0.000000000000e+000
          1.800000000000e+001 1.250000000000e+001 0.000000000000e+000
          1.800000000000e+001 1.500000000000e+001 0.000000000000e+000
          1.800000000000e+001 1.750000000000e+001 0.000000000000e+000
          1.800000000000e+001 2.000000000000e+001 0.000000000000e+000
          2.000000000000e+001 0.000000000000e+000 0.000000000000e+000
          2.000000000000e+001 2.500000000000e+000 0.000000000000e+000
          2.000000000000e+001 5.000000000000e+000 0.000000000000e+000
          2.000000000000e+001 7.500000000000e+000 0.000000000000e+000
          2.000000000000e+001 1.000000000000e+001 0.000000000000e+000
          2.000000000000e+001 1.250000000000e+001 0.000000000000e+000
          2.000000000000e+001 1.500000000000e+001 0.000000000000e+000
          2.000000000000e+001 1.750000000000e+001 0.000000000000e+000
          2.000000000000e+001 2.000000000000e+001 0.000000000000e+000
          2.200000000000e+001 0.000000000000e+000 0.000000000000e+000
          2.200000000000e+001 2.500000000000e+000 0.000000000000e+000
          2.200000000000e+001 5.000000000000e+000 0.000000000000e+000
          2.200000000000e+001 7.500000000000e+000 0.000000000000e+000
          2.200000000000e+001 1.000000000000e+001 0.000000000000e+000
          2.200000000000e+001 1.250000000000e+001 0.000000000000e+000
          2.200000000000e+001 1.500000000000e+001 0.000000000000e+000
          2.200000000000e+001 1.750000000000e+001 0.000000000000e+000
          2.200000000000e+001 2.000000000000e+001 0.000000000000e+000
          2.400000000000e+001 0.000000000000e+000 0.000000000000e+000
          2.400000000000e+001 2.500000000000e+000 0.000000000000e+000
          2.400000000000e+001 5.000000000000e+000 0.000000000000e+000
          2.400000000000e+001 7.500000000000e+000 0.000000000000e+000
          2.400000000000e+001 1.000000000000e+001 0.000000000000e+000
          2.400000000000e+001 1.250000000000e+001 0.000000000000e+000
          2.400000000000e+001 1.500000000000e+001 0.000000000000e+000
          2.400000000000e+001 1.750000000000e+001 0.000000000000e+000
          2.400000000000e+001 2.000000000000e+001 0.000000000000e+000
          2.600000000000e+001 0.000000000000e+000 0.000000000000e+000
          2.600000000000e+001 2.500000000000e+000 0.000000000000e+000
          2.600000000000e+001 5.000000000000e+000 0.000000000000e+000
          2.600000000000e+001 7.500000000000e+000 0.000000000000e+000
          2.600000000000e+001 1.000000000000e+001 0.000000000000e+000
          2.600000000000e+001 1.250000000000e+001 0.000000000000e+000
          2.600000000000e+001 1.500000000000e+001 0.000000000000e+000
          2.600000000000e+001 1.750000000000e+001 0.000000000000e+000
          2.600000000000e+001 2.000000000000e+001 0.000000000000e+000
          2.800000000000e+001 0.000000000000e+000 0.000000000000e+000
          2.800000000000e+001 2.500000000000e+000 0.000000000000e+000
          2.800000000000e+001 5.000000000000e+000 0.000000000000e+000
          2.800000000000e+001 7.500000000000e+000 0.000000000000e+000
          2.800000000000e+001 1.000000000000e+001 0.000000000000e+000
          2.800000000000e+001 1.250000000000e+001 0.000000000000e+000
          2.800000000000e+001 1.500000000000e+001 0.000000000000e+000
          2.800000000000e+001 1.750000000000e+001 0.000000000000e+000
          2.800000000000e+001 2.000000000000e+001 0.000000000000e+000
          3.000000000000e+001 0.000000000000e+000 0.000000000000e+000
          3.000000000000e+001 2.500000000000e+000 0.000000000000e+000
          3.000000000000e+001 5.000000000000e+000 0.000000000000e+000
          3.000000000000e+001 7.500000000000e+000 0.000000000000e+000
[...]
      <PointData Scalars="LIQUID_PRESSURE">
        <DataArray type="Float64" Name="LIQUID_PRESSURE" format="ascii">
          1.006300635855e+006 1.006311271043e+006 1.006311271052e+006 1.006300635800e+006 1.006311271069e+006 1.006300635752e+006 1.006311271039e+006 1.006300635818e+006 1.006311271058e+006 1.006300635804e+006 1.006311271089e+006 1.006300635723e+006 1.006311271089e+006 1.006300635735e+006 1.006311271101e+006 1.006300635712e+006 1.006311271121e+006 1.006300635656e+006 1.006310852936e+006 1.006310852961e+006 1.006310852968e+006 1.006310852947e+006 1.006310852948e+006 1.006310852971e+006 1.006310852954e+006 1.006310852963e+006 1.006310852982e+006 1.006281960091e+006 1.006281960099e+006 1.006281960104e+006 1.006281960093e+006 1.006281960096e+006 1.006281960106e+006 1.006281960097e+006 1.006281960091e+006 1.006281960097e+006 1.006298359095e+006 1.006298359098e+006 1.006298359101e+006 1.006298359092e+006 1.006298359092e+006 1.006298359099e+006 1.006298359090e+006 1.006298359087e+006 1.006298359093e+006 1.006275328784e+006 1.006275328789e+006 1.006275328785e+006 1.006275328786e+006 1.006275328782e+006 1.006275328788e+006 1.006275328777e+006 1.006275328782e+006 1.006275328790e+006 1.006251000408e+006 1.006251000407e+006 1.006251000410e+006 1.006251000410e+006 1.006251000410e+006 1.006251000410e+006 1.006251000406e+006 1.006251000409e+006 1.006251000408e+006 1.006259161217e+006 1.006259161211e+006 1.006259161214e+006 1.006259161215e+006 1.006259161211e+006 1.006259161211e+006 1.006259161211e+006 1.006259161209e+006 1.006259161214e+006 1.006215223469e+006 1.006215223455e+006 1.006215223462e+006 1.006215223462e+006 1.006215223456e+006 1.006215223453e+006 1.006215223458e+006 1.006215223459e+006 1.006215223453e+006 1.006208496859e+006 1.006208496853e+006 1.006208496857e+006 1.006208496856e+006 1.006208496853e+006 1.006208496849e+006 1.006208496857e+006 1.006208496852e+006 1.006208496852e+006 1.006184593423e+006 1.006184593435e+006 1.006184593432e+006 1.006184593431e+006 1.006184593433e+006 1.006184593429e+006 1.006184593435e+006 1.006184593433e+006 1.006184593427e+006 1.006148620653e+006 1.006148620655e+006 1.006148620654e+006 1.006148620653e+006 1.006148620652e+006 1.006148620643e+006 1.006148620659e+006 1.006148620658e+006 1.006148620650e+006 1.006136067501e+006 1.006136067494e+006 1.006136067503e+006 1.006136067496e+006 1.006136067497e+006 1.006136067498e+006 1.006136067494e+006 1.006136067495e+006 1.006136067504e+006 1.006088615407e+006 1.006088615403e+006 1.006088615397e+006 1.006088615401e+006 1.006088615401e+006 1.006088615397e+006 1.006088615399e+006 1.006088615395e+006 1.006088615399e+006 1.006070611865e+006 1.006070611860e+006 1.006070611854e+006 1.006070611861e+006 1.006070611859e+006 1.006070611861e+006 1.006070611859e+006 1.006070611860e+006 1.006070611858e+006 1.006027129402e+006 1.006027129405e+006 1.006027129407e+006 1.006027129404e+006 1.006027129405e+006 1.006027129398e+006 1.006027129403e+006 1.006027129400e+006 1.006027129404e+006 1.005990178651e+006 1.005990178650e+006 1.005990178646e+006 1.005990178648e+006 1.005990178649e+006 1.005990178644e+006 1.005990178648e+006 1.005990178647e+006 1.005990178649e+006 1.005960726272e+006 1.005960726282e+006 1.005960726273e+006 1.005960726280e+006 1.005960726279e+006 1.005960726280e+006 1.005960726284e+006 1.005960726274e+006 1.005960726279e+006 1.005901684699e+006 1.005901684695e+006 1.005901684696e+006 1.005901684688e+006 1.005901684692e+006 1.005901684700e+006 1.005901684692e+006 1.005901684697e+006 1.005901684697e+006 1.005877253007e+006 1.005877252998e+006 1.005877252999e+006 1.005877253003e+006 1.005877253001e+006 1.005877252995e+006 1.005877253000e+006 1.005877252999e+006 1.005877253007e+006 1.005817987224e+006 1.005817987219e+006 1.005817987219e+006 1.005817987229e+006 1.005817987220e+006 1.005817987222e+006 1.005817987224e+006 1.005817987220e+006 1.005817987228e+006 1.005776669728e+006 1.005776669731e+006 1.005776669731e+006 1.005776669727e+006 1.005776669728e+006 1.005776669728e+006 1.005776669727e+006 1.005776669727e+006 1.005776669725e+006 1.005726467447e+006 1.005726467449e+006 1.005726467451e+006 1.005726467449e+006 1.005726467450e+006 1.005726467454e+006 1.005726467448e+006 1.005726467448e+006 1.005726467449e+006 1.005670951794e+006 1.005670951786e+006 1.005670951788e+006 1.005670951789e+006 1.005670951794e+006 1.005670951791e+006 1.005670951792e+006 1.005670951793e+006 1.005670951788e+006 1.005626030767e+006 1.005626030766e+006 1.005626030763e+006 1.005626030765e+006 1.005626030767e+006 1.005626030766e+006 1.005626030771e+006 1.005626030768e+006 1.005626030764e+006 1.005559031329e+006 1.005559031343e+006 1.005559031336e+006 1.005559031339e+006 1.005559031338e+006 1.005559031336e+006 1.005559031337e+006 1.005559031336e+006 1.005559031333e+006 1.005511557804e+006 1.005511557797e+006 1.005511557804e+006 1.005511557801e+006 1.005511557803e+006 1.005511557801e+006 1.005511557801e+006 1.005511557807e+006 1.005511557798e+006 1.005449272989e+006 1.005449272985e+006 1.005449272985e+006 1.005449272991e+006 1.005449272989e+006 1.005449272984e+006 1.005449272988e+006 1.005449272984e+006 1.005449272991e+006 1.005382494458e+006 1.005382494454e+006 1.005382494451e+006 1.005382494452e+006 1.005382494456e+006 1.005382494456e+006 1.005382494455e+006 1.005382494457e+006 1.005382494461e+006 1.005332607977e+006 1.005332607978e+006 1.005332607976e+006 1.005332607977e+006 1.005332607977e+006 1.005332607977e+006 1.005332607977e+006 1.005332607974e+006 1.005332607978e+006 1.005255031258e+006 1.005255031254e+006 1.005255031256e+006 1.005255031260e+006 1.005255031258e+006 1.005255031254e+006 1.005255031254e+006 1.005255031255e+006 1.005255031252e+006 1.005195443492e+006 1.005195443497e+006 1.005195443498e+006 1.005195443503e+006 1.005195443504e+006 1.005195443497e+006 1.005195443502e+006 1.005195443501e+006 1.005195443501e+006 1.005131713925e+006 1.005131713922e+006 1.005131713921e+006 1.005131713924e+006 1.005131713926e+006 1.005131713923e+006 1.005131713923e+006 1.005131713920e+006 1.005131713925e+006 1.005050646516e+006 1.005050646512e+006 1.005050646515e+006 1.005050646514e+006 1.005050646515e+006 1.005050646512e+006 1.005050646512e+006 1.005050646512e+006 1.005050646507e+006 1.004992697503e+006 1.004992697506e+006 1.004992697505e+006 1.004992697506e+006 1.004992697508e+006 1.004992697503e+006 1.004992697510e+006 1.004992697502e+006 1.004992697503e+006 1.004913937141e+006 1.004913937142e+006 1.004913937140e+006 1.004913937139e+006 1.004913937143e+006 1.004913937142e+006 1.004913937141e+006 1.004913937142e+006 1.004913937138e+006 1.004838276574e+006 1.004838276576e+006 1.004838276575e+006 1.004838276574e+006 1.004838276578e+006 1.004838276575e+006 1.004838276577e+006 1.004838276575e+006 1.004838276575e+006 1.004770631615e+006 1.004770631619e+006 1.004770631621e+006 1.004770631621e+006 1.004770631621e+006 1.004770631621e+006 1.004770631621e+006 1.004770631620e+006 1.004770631616e+006 1.004688126112e+006 1.004688126106e+006 1.004688126101e+006 1.004688126106e+006 1.004688126106e+006 1.004688126106e+006 1.004688126102e+006 1.004688126103e+006 1.004688126105e+006 1.004609209684e+006 1.004609209680e+006 1.004609209680e+006 1.004609209677e+006 1.004609209681e+006 1.004609209677e+006 1.004609209678e+006 1.004609209677e+006 1.004609209684e+006 1.004539408613e+006 1.004539408613e+006 1.004539408610e+006 1.004539408613e+006 1.004539408609e+006 1.004539408611e+006 1.004539408611e+006 1.004539408610e+006 1.004539408610e+006 1.004449755488e+006 1.004449755490e+006 1.004449755488e+006 1.004449755489e+006 1.004449755489e+006 1.004449755488e+006 1.004449755488e+006 1.004449755489e+006 1.004449755489e+006 1.004372511643e+006 1.004372511644e+006 1.004372511644e+006 1.004372511646e+006 1.004372511648e+006 1.004372511642e+006 1.004372511650e+006 1.004372511644e+006 1.004372511646e+006 1.004291089822e+006 1.004291089826e+006 1.004291089825e+006 1.004291089823e+006 1.004291089827e+006 1.004291089826e+006 1.004291089824e+006 1.004291089831e+006 1.004291089828e+006 1.004203457320e+006 1.004203457327e+006 1.004203457325e+006 1.004203457324e+006 1.004203457324e+006 1.004203457325e+006 1.004203457324e+006 1.004203457324e+006 1.004203457324e+006 1.004127174364e+006 1.004127174367e+006 1.004127174364e+006 1.004127174368e+006 1.004127174364e+006 1.004127174365e+006 1.004127174363e+006 1.004127174362e+006 1.004127174364e+006 1.004037777311e+006 1.004037777311e+006 1.004037777314e+006 1.004037777315e+006 1.004037777310e+006 1.004037777314e+006 1.004037777314e+006 1.004037777311e+006 1.004037777314e+006 1.003943669249e+006 1.003943669250e+006 1.003943669249e+006 1.003943669248e+006 1.003943669251e+006 1.003943669250e+006 1.003943669251e+006 1.003943669248e+006 1.003943669247e+006 1.003871626939e+006 1.003871626942e+006 1.003871626942e+006 1.003871626939e+006 1.003871626942e+006 1.003871626940e+006 1.003871626943e+006 1.003871626942e+006 1.003871626939e+006 1.003774281434e+006 1.003774281437e+006 1.003774281437e+006 1.003774281439e+006 1.003774281437e+006 1.003774281436e+006 1.003774281435e+006 1.003774281436e+006 1.003774281439e+006 1.003688235315e+006 1.003688235314e+006 1.003688235315e+006 1.003688235315e+006 1.003688235313e+006 1.003688235314e+006 1.003688235315e+006 1.003688235314e+006 1.003688235313e+006 1.003601843994e+006 1.003601843991e+006 1.003601843990e+006 1.003601843990e+006 1.003601843986e+006 1.003601843991e+006 1.003601843991e+006 1.003601843991e+006 1.003601843988e+006 1.003507353045e+006 1.003507353047e+006 1.003507353048e+006 1.003507353044e+006 1.003507353040e+006 1.003507353047e+006 1.003507353044e+006 1.003507353045e+006 1.003507353044e+006 1.003419452112e+006 1.003419452117e+006 1.003419452118e+006 1.003419452117e+006 1.003419452118e+006 1.003419452115e+006 1.003419452118e+006 1.003419452116e+006 1.003419452116e+006 1.003332715335e+006 1.003332715333e+006 1.003332715333e+006 1.003332715336e+006 1.003332715335e+006 1.003332715334e+006 1.003332715334e+006 1.003332715336e+006 1.003332715333e+006 1.003237669200e+006 1.003237669201e+006 1.003237669204e+006 1.003237669201e+006 1.003237669203e+006 1.003237669199e+006 1.003237669204e+006 1.003237669202e+006 1.003237669203e+006 1.003144337021e+006 1.003144337022e+006 1.003144337022e+006 1.003144337021e+006 1.003144337020e+006 1.003144337022e+006 1.003144337020e+006 1.003144337022e+006 1.003144337022e+006 1.003055403139e+006 1.003055403140e+006 1.003055403141e+006 1.003055403140e+006 1.003055403140e+006 1.003055403140e+006 1.003055403139e+006 1.003055403141e+006 1.003055403139e+006 1.002976925788e+006 1.002976925791e+006 1.002976925790e+006 1.002976925789e+006 1.002976925792e+006 1.002976925790e+006 1.002976925793e+006 1.002976925791e+006 1.002976925790e+006 1.002854822427e+006 1.002854822427e+006 1.002854822426e+006 1.002854822425e+006 1.002854822423e+006 1.002854822423e+006 1.002854822424e+006 1.002854822423e+006 1.002854822424e+006 1.002781448976e+006 1.002781448978e+006 1.002781448978e+006 1.002781448981e+006 1.002781448985e+006 1.002781448986e+006 1.002781448984e+006 1.002781448986e+006 1.002781448984e+006 1.002699884585e+006 1.002699884587e+006 1.002699884588e+006 1.002699884581e+006 1.002699884578e+006 1.002699884577e+006 1.002699884575e+006 1.002699884577e+006 1.002699884573e+006 1.002601796568e+006 1.002601796570e+006 1.002601796573e+006 1.002601796581e+006 1.002601796588e+006 1.002601796592e+006 1.002601796591e+006 1.002601796595e+006 1.002601796594e+006 1.002462890555e+006 1.002462890552e+006 1.002462890552e+006 1.002462890537e+006 1.002462890532e+006 1.002462890528e+006 1.002462890530e+006 1.002462890527e+006 1.002462890527e+006 1.002478582866e+006 1.002478582868e+006 1.002478582861e+006 1.002478582885e+006 1.002478582889e+006 1.002478582892e+006 1.002478582895e+006 1.002478582897e+006 1.002478582904e+006 1.002248608649e+006 1.002248608645e+006 1.002248608649e+006 1.002248608629e+006 1.002248608630e+006 1.002248608626e+006 1.002248608622e+006 1.002248608624e+006 1.002248608624e+006 1.002290743499e+006 1.002290743502e+006 1.002290743499e+006 1.002290743502e+006 1.002290743509e+006 1.002290743507e+006 1.002290743509e+006 1.002290743509e+006 1.002290743513e+006 1.002109922652e+006 1.002109922651e+006 1.002109922646e+006 1.002109922658e+006 1.002109922652e+006 1.002109922652e+006 1.002109922650e+006 1.002109922654e+006 1.002109922650e+006 1.002046558389e+006 1.002046558391e+006 1.002046558387e+006 1.002046558392e+006 1.002046558388e+006 1.002046558389e+006 1.002046558388e+006 1.002046558386e+006 1.002046558388e+006 1.001970812870e+006 1.001970812873e+006 1.001970812871e+006 1.001970812874e+006 1.001970812873e+006 1.001970812872e+006 1.001970812872e+006 1.001970812872e+006 1.001970812871e+006 1.001866325698e+006 1.001866325697e+006 1.001866325697e+006 1.001866325697e+006 1.001866325697e+006 1.001866325697e+006 1.001866325698e+006 1.001866325696e+006 1.001866325698e+006 1.001786200650e+006 1.001786200651e+006 1.001786200650e+006 1.001786200651e+006 1.001786200651e+006 1.001786200652e+006 1.001786200651e+006 1.001786200651e+006 1.001786200650e+006 1.001692599294e+006 1.001692599293e+006 1.001692599292e+006 1.001692599294e+006 1.001692599293e+006 1.001692599293e+006 1.001692599293e+006 1.001692599292e+006 1.001692599292e+006 1.001602765278e+006 1.001602765279e+006 1.001602765279e+006 1.001602765278e+006 1.001602765279e+006 1.001602765278e+006 1.001602765277e+006 1.001602765278e+006 1.001602765277e+006 1.001538900780e+006 1.001538900780e+006 1.001538900781e+006 1.001538900781e+006 1.001538900780e+006 1.001538900781e+006 1.001538900780e+006 1.001538900781e+006 1.001538900779e+006 1.001433322791e+006 1.001433322791e+006 1.001433322791e+006 1.001433322792e+006 1.001433322792e+006 1.001433322792e+006 1.001433322791e+006 1.001433322790e+006 1.001433322794e+006 1.001359143959e+006 1.001359143960e+006 1.001359143959e+006 1.001359143957e+006 1.001359143957e+006 1.001359143957e+006 1.001359143958e+006 1.001359143957e+006 1.001359143956e+006 1.001287509597e+006 1.001287509595e+006 1.001287509597e+006 1.001287509596e+006 1.001287509597e+006 1.001287509596e+006 1.001287509595e+006 1.001287509596e+006 1.001287509597e+006 1.001193378489e+006 1.001193378490e+006 1.001193378488e+006 1.001193378489e+006 1.001193378488e+006 1.001193378488e+006 1.001193378488e+006 1.001193378489e+006 1.001193378488e+006 1.001134987936e+006 1.001134987936e+006 1.001134987937e+006 1.001134987937e+006 1.001134987937e+006 1.001134987937e+006 1.001134987936e+006 1.001134987937e+006 1.001134987938e+006 1.001063104816e+006 1.001063104817e+006 1.001063104817e+006 1.001063104817e+006 1.001063104816e+006 1.001063104817e+006 1.001063104816e+006 1.001063104816e+006 1.001063104815e+006 1.001007187474e+006 1.001007187475e+006 1.001007187475e+006 1.001007187475e+006 1.001007187475e+006 1.001007187474e+006 1.001007187474e+006 1.001007187474e+006 1.001007187474e+006 1.000954176410e+006 1.000954176410e+006 1.000954176410e+006 1.000954176410e+006 1.000954176410e+006 1.000954176409e+006 1.000954176409e+006 1.000954176409e+006 1.000954176409e+006 1.000901165221e+006 1.000901165221e+006 1.000901165221e+006 1.000901165221e+006 1.000901165221e+006 1.000901165220e+006 1.000901165220e+006 1.000901165220e+006 1.000901165220e+006 1.000848154330e+006 1.000848154330e+006 1.000848154330e+006 1.000848154330e+006 1.000848154330e+006 1.000848154330e+006 1.000848154329e+006 1.000848154329e+006 1.000848154329e+006 1.000795143664e+006 1.000795143664e+006 1.000795143663e+006 1.000795143663e+006 1.000795143663e+006 1.000795143663e+006 1.000795143663e+006 1.000795143663e+006 1.000795143663e+006 1.000742133214e+006 1.000742133214e+006 1.000742133214e+006 1.000742133214e+006 1.000742133214e+006 1.000742133213e+006 1.000742133214e+006 1.000742133214e+006 1.000742133214e+006 1.000689122962e+006 1.000689122962e+006 1.000689122962e+006 1.000689122962e+006 1.000689122962e+006 1.000689122962e+006 1.000689122962e+006 1.000689122962e+006 1.000689122962e+006 1.000636112892e+006 1.000636112892e+006 1.000636112892e+006 1.000636112892e+006 1.000636112892e+006 1.000636112892e+006 1.000636112892e+006 1.000636112892e+006 1.000636112892e+006 1.000583102986e+006 1.000583102986e+006 1.000583102986e+006 1.000583102986e+006 1.000583102986e+006 1.000583102986e+006 1.000583102986e+006 1.000583102986e+006 1.000583102986e+006 1.000530093228e+006 1.000530093228e+006 1.000530093228e+006 1.000530093228e+006 1.000530093228e+006 1.000530093228e+006 1.000530093228e+006 1.000530093228e+006 1.000530093228e+006 1.000477083600e+006 1.000477083600e+006 1.000477083600e+006 1.000477083600e+006 1.000477083600e+006 1.000477083600e+006 1.000477083600e+006 1.000477083600e+006 1.000477083600e+006 1.000424074086e+006 1.000424074086e+006 1.000424074086e+006 1.000424074086e+006 1.000424074086e+006 1.000424074086e+006 1.000424074086e+006 1.000424074086e+006 1.000424074086e+006 1.000371064668e+006 1.000371064668e+006 1.000371064668e+006 1.000371064668e+006 1.000371064668e+006 1.000371064668e+006 1.000371064668e+006 1.000371064668e+006 1.000371064668e+006 1.000318055329e+006 1.000318055329e+006 1.000318055329e+006 1.000318055329e+006 1.000318055329e+006 1.000318055330e+006 1.000318055330e+006 1.000318055330e+006 1.000318055329e+006 1.000265046053e+006 1.000265046053e+006 1.000265046053e+006 1.000265046053e+006 1.000265046053e+006 1.000265046053e+006 1.000265046053e+006 1.000265046053e+006 1.000265046053e+006 1.000212036821e+006 1.000212036821e+006 1.000212036821e+006 1.000212036821e+006 1.000212036822e+006 1.000212036822e+006 1.000212036822e+006 1.000212036822e+006 1.000212036822e+006 1.000159027618e+006 1.000159027618e+006 1.000159027618e+006 1.000159027618e+006 1.000159027618e+006 1.000159027618e+006 1.000159027618e+006 1.000159027618e+006 1.000159027618e+006 1.000106018424e+006 1.000106018424e+006 1.000106018424e+006 1.000106018424e+006 1.000106018424e+006 1.000106018424e+006 1.000106018424e+006 1.000106018424e+006 1.000106018424e+006 1.000053009224e+006 1.000053009224e+006 1.000053009224e+006 1.000053009224e+006 1.000053009224e+006 1.000053009224e+006 1.000053009224e+006 1.000053009224e+006 1.000053009224e+006 1.000000000000e+006 1.000000000000e+006 1.000000000000e+006 1.000000000000e+006 1.000000000000e+006 1.000000000000e+006 1.000000000000e+006 1.000000000000e+006 1.000000000000e+006 
        </DataArray>
        <DataArray type="Float64" Name="MOLAR_FRACTION" format="ascii">