<?xml version="1.0"?>
<VTKFile type="UnstructuredGrid" version="0.1" byte_order="LittleEndian">
  <UnstructuredGrid>
    <Piece NumberOfPoints="909" NumberOfCells="800">
      <Points>
        <DataArray type="Float64" NumberOfComponents="3" format="ascii">
          0.000000000000e+000 0.000000000000e+000 0.000000000000e+000
          2.000000000000e+000 0.000000000000e+000 0.000000000000e+000
          2.000000000000e+000 2.500000000000e+000 0.000000000000e+000
          0.000000000000e+000 2.500000000000e+000 0.000000000000e+000
          2.000000000000e+000 5.000000000000e+000 0.000000000000e+000
          0.000000000000e+000 5.000000000000e+000 0.000000000000e+000
          2.000000000000e+000 7.500000000000e+000 0.000000000000e+000
          0.000000000000e+000 7.500000000000e+000 0.000000000000e+000
          2.000000000000e+000 1.000000000000e+001 0.000000000000e+000
          0.000000000000e+000 1.000000000000e+001 0.000000000000e+000
          2.000000000000e+000 1.250000000000e+001 0.000000000000e+000
          0.000000000000e+000 1.250000000000e+001 0.000000000000e+000
          2.000000000000e+000 1.500000000000e+001 0.000000000000e+000
          0.000000000000e+000 1.500000000000e+001 0.000000000000e+000
          2.000000000000e+000 1.750000000000e+001 0.000000000000e+000
          0.000000000000e+000 1.750000000000e+001 0.000000000000e+000
          2.000000000000e+000 2.000000000000e+001 0.000000000000e+000
          0.000000000000e+000 2.000000000000e+001 0.000000000000e+000
          4.000000000000e+000 0.000000000000e+000 0.000000000000e+000
          4.000000000000e+000 2.500000000000e+000 0.000000000000e+000
          4.000000000000e+000 5.000000000000e+000 0.000000000000e+000
          4.000000000000e+000 7.500000000000e+000 0.000000000000e+000
          4.000000000000e+000 1.000000000000e+001 0.000000000000e+000
          4.000000000000e+000 1.250000000000e+001 0.000000000000e+000
          4.000000000000e+000 1.500000000000e+001 0.000000000000e+000
          4.000000000000e+000 1.750000000000e+001 0.000000000000e+000
          4.000000000000e+000 2.000000000000e+001 0.000000000000e+000
          6.000000000000e+000 0.000000000000e+000 0.000000000000e+000
          6.000000000000e+000 2.500000000000e+000 0.000000000000e+000
          6.000000000000e+000 5.000000000000e+000 0.000000000000e+000
          6.000000000000e+000 7.500000000000e+000 0.000000000000e+000
          6.000000000000e+000 1.000000000000e+001 0.000000000000e+000
          6.000000000000e+000 1.250000000000e+001 0.000000000000e+000
          6.000000000000e+000 1.500000000000e+001 0.000000000000e+000
          6.000000000000e+000 1.750000000000e+001 0.000000000000e+000
          6.000000000000e+000 2.000000000000e+001 0.000000000000e+000
          8.000000000000e+000 0.000000000000e+000 0.000000000000e+000
          8.000000000000e+000 2.500000000000e+000 0.000000000000e+000
          8.000000000000e+000 5.000000000000e+000 0.000000000000e+000
          8.000000000000e+000 7.500000000000e+000 0.000000000000e+000
          8.000000000000e+000 1.000000000000e+001 0.000000000000e+000
          8.000000000000e+000 1.250000000000e+001 0.000000000000e+000
          8.000000000000e+000 1.500000000000e+001 0.000000000000e+000
          8.000000000000e+000 1.750000000000e+001 0.000000000000e+000
          8.000000000000e+000 2.000000000000e+001 0.000000000000e+000
          1.000000000000e+001 0.000000000000e+000 0.000000000000e+000
          1.000000000000e+001 2.500000000000e+000 0.000000000000e+000
          1.000000000000e+001 5.000000000000e+000 0.000000000000e+000
          1.000000000000e+001 7.500000000000e+000 0.000000000000e+000
          1.000000000000e+001 1.000000000000e+001 0.000000000000e+000
          1.000000000000e+001 1.250000000000e+001 0.000000000000e+000
          1.000000000000e+001 1.500000000000e+001 0.000000000000e+000
          1.000000000000e+001 1.750000000000e+001 0.000000000000e+000
          1.000000000000e+001 2.000000000000e+001 0.000000000000e+000
          1.200000000000e+001 0.000000000000e+000 0.000000000000e+000
          1.200000000000e+001 2.500000000000e+000 0.000000000000e+000
          1.200000000000e+001 5.000000000000e+000 0.000000000000e+000
          1.200000000000e+001 7.500000000000e+000 0.000000000000e+000
          1.200000000000e+001 1.000000000000e+001 0.000000000000e+000
          1.200000000000e+001 1.250000000000e+001 0.000000000000e+000
          1.200000000000e+001 1.500000000000e+001 0.000000000000e+000
          1.200000000000e+001 1.750000000000e+001 0.000000000000e+000
          1.200000000000e+001 2.000000000000e+001 0.000000000000e+000
          1.400000000000e+001 0.000000000000e+000 0.000000000000e+000
          1.400000000000e+001 2.500000000000e+000 0.000000000000e+000
          1.400000000000e+001 5.000000000000e+000 0.000000000000e+000
          1.400000000000e+001 7.500000000000e+000 0.000000000000e+000
          1.400000000000e+001 1.000000000000e+001 0.000000000000e+000
          1.400000000000e+001 1.250000000000e+001 0.000000000000e+000
          1.400000000000e+001 1.500000000000e+001 0.000000000000e+000
          1.400000000000e+001 1.750000000000e+001 0.000000000000e+000
          1.400000000000e+001 2.000000000000e+001 0.000000000000e+000
          1.600000000000e+001 0.000000000000e+000 0.000000000000e+000
          1.600000000000e+001 2.500000000000e+000 0.000000000000e+000
          1.600000000000e+001 5.000000000000e+000 0.000000000000e+000
          1.600000000000e+001 7.500000000000e+000 0.000000000000e+000
          1.600000000000e+001 1.000000000000e+001 0.000000000000e+000
          1.600000000000e+001 1.250000000000e+001 0.000000000000e+000
          1.600000000000e+001 1.500000000000e+001 0.000000000000e+000
          1.600000000000e+001 1.750000000000e+001 0.000000000000e+000
          1.600000000000e+001 2.000000000000e+001 0.000000000000e+000
          1.800000000000e+001 0.000000000000e+000 0.000000000000e+000
          1.800000000000e+001 2.500000000000e+000 0.000000000000e+000
          1.800000000000e+001 5.000000000000e+000 0.000000000000e+000
          1.800000000000e+001 7.500000000000e+000 0.000000000000e+000
          1.800000000000e+001 1.000000000000e+001 0.000000000000e+000
          1.800000000000e+001 1.250000000000e+001 0.000000000000e+000
          1.800000000000e+001 1.500000000000e+001 0.000000000000e+000
          1.800000000000e+001 1.750000000000e+001 0.000000000000e+000
          1.800000000000e+001 2.000000000000e+001 0.000000000000e+000
          2.000000000000e+001 0.000000000000e+000 0.000000000000e+000
          2.000000000000e+001 2.500000000000e+000 0.000000000000e+000
          2.000000000000e+001 5.000000000000e+000 0.000000000000e+000
          2.000000000000e+001 7.500000000000e+000 0.000000000000e+000
          2.000000000000e+001 1.000000000000e+001 0.000000000000e+000
          2.000000000000e+001 1.250000000000e+001 0.000000000000e+000
          2.000000000000e+001 1.500000000000e+001 0.000000000000e+000
          2.000000000000e+001 1.750000000000e+001 0.000000000000e+000
          2.000000000000e+001 2.000000000000e+001 0.000000000000e+000
          2.200000000000e+001 0.000000000000e+000 0.000000000000e+000
          2.200000000000e+001 2.500000000000e+000 0.000000000000e+000
          2.200000000000e+001 5.000000000000e+000 0.000000000000e+000
          2.200000000000e+001 7.500000000000e+000 0.000000000000e+000
          2.200000000000e+001 1.000000000000e+001 0.000000000000e+000
          2.200000000000e+001 1.250000000000e+001 0.000000000000e+000
          2.200000000000e+001 1.500000000000e+001 0.000000000000e+000
          2.200000000000e+001 1.750000000000e+001 0.000000000000e+000
          2.200000000000e+001 2.000000000000e+001 0.000000000000e+000
          2.400000000000e+001 0.000000000000e+000 0.000000000000e+000
          2.400000000000e+001 2.500000000000e+000 0.000000000000e+000
          2.400000000000e+001 5.000000000000e+000 0.000000000000e+000
          2.400000000000e+001 7.500000000000e+000 0.000000000000e+000
          2.400000000000e+001 1.000000000000e+001 0.000000000000e+000
          2.400000000000e+001 1.250000000000e+001 0.000000000000e+000
          2.400000000000e+001 1.500000000000e+001 0.000000000000e+000
          2.400000000000e+001 1.750000000000e+001 0.000000000000e+000
          2.400000000000e+001 2.000000000000e+001 0.000000000000e+000
          2.600000000000e+001 0.000000000000e+000 0.000000000000e+000
          2.600000000000e+001 2.500000000000e+000 0.000000000000e+000
          2.600000000000e+001 5.000000000000e+000 0.000000000000e+000
          2.600000000000e+001 7.500000000000e+000 0.000000000000e+000
          2.600000000000e+001 1.000000000000e+001 0.000000000000e+000
          2.600000000000e+001 1.250000000000e+001 0.000000000000e+000
          2.600000000000e+001 1.500000000000e+001 0.000000000000e+000
          2.600000000000e+001 1.750000000000e+001 0.000000000000e+000
          2.600000000000e+001 2.000000000000e+001 0.000000000000e+000
          2.800000000000e+001 0.000000000000e+000 0.000000000000e+000
          2.800000000000e+001 2.500000000000e+000 0.000000000000e+000
          2.800000000000e+001 5.000000000000e+000 0.000000000000e+000
          2.800000000000e+001 7.500000000000e+000 0.000000000000e+000
          2.800000000000e+001 1.000000000000e+001 0.000000000000e+000
          2.800000000000e+001 1.250000000000e+001 0.000000000000e+000
          2.800000000000e+001 1.500000000000e+001 0.000000000000e+000
          2.800000000000e+001 1.750000000000e+001 0.000000000000e+000
          2.800000000000e+001 2.000000000000e+001 0.000000000000e+000
          3.000000000000e+001 0.000000000000e+000 0.000000000000e+000
          3.000000000000e+001 2.500000000000e+000 0.000000000000e+000
          3.000000000000e+001 5.000000000000e+000 0.000000000000e+000
          3.000000000000e+001 7.500000000000e+000 0.000000000000e+000
[...]
      <PointData Scalars="LIQUID_PRESSURE">
        <DataArray type="Float64" Name="LIQUID_PRESSURE" format="ascii">
          1.121773715965e+006 1.121779566424e+006 1.121779566440e+006 1.121773715861e+006 1.121779566469e+006 1.121773715791e+006 1.121779566429e+006 1.121773715894e+006 1.121779566453e+006 1.121773715868e+006 1.121779566499e+006 1.121773715722e+006 1.121779566478e+006 1.121773715694e+006 1.121779566493e+006 1.121773715634e+006 1.121779566528e+006 1.121773715552e+006 1.121722730767e+006 1.121722730817e+006 1.121722730845e+006 1.121722730790e+006 1.121722730803e+006 1.121722730869e+006 1.121722730845e+006 1.121722730870e+006 1.121722730914e+006 1.121604832133e+006 1.121604832169e+006 1.121604832189e+006 1.121604832148e+006 1.121604832157e+006 1.121604832191e+006 1.121604832172e+006 1.121604832179e+006 1.121604832200e+006 1.121518181252e+006 1.121518181272e+006 1.121518181290e+006 1.121518181257e+006 1.121518181256e+006 1.121518181273e+006 1.121518181258e+006 1.121518181253e+006 1.121518181266e+006 1.121333754751e+006 1.121333754767e+006 1.121333754773e+006 1.121333754760e+006 1.121333754750e+006 1.121333754767e+006 1.121333754755e+006 1.121333754749e+006 1.121333754757e+006 1.121127311699e+006 1.121127311708e+006 1.121127311714e+006 1.121127311705e+006 1.121127311703e+006 1.121127311708e+006 1.121127311704e+006 1.121127311702e+006 1.121127311703e+006 1.120926887437e+006 1.120926887440e+006 1.120926887444e+006 1.120926887437e+006 1.120926887441e+006 1.120926887439e+006 1.120926887439e+006 1.120926887437e+006 1.120926887438e+006 1.120625340058e+006 1.120625340057e+006 1.120625340059e+006 1.120625340055e+006 1.120625340057e+006 1.120625340059e+006 1.120625340058e+006 1.120625340061e+006 1.120625340056e+006 1.120344714382e+006 1.120344714381e+006 1.120344714382e+006 1.120344714381e+006 1.120344714381e+006 1.120344714380e+006 1.120344714381e+006 1.120344714380e+006 1.120344714382e+006 1.120002960736e+006 1.120002960739e+006 1.120002960739e+006 1.120002960737e+006 1.120002960738e+006 1.120002960738e+006 1.120002960738e+006 1.120002960738e+006 1.120002960739e+006 1.119615921792e+006 1.119615921795e+006 1.119615921793e+006 1.119615921794e+006 1.119615921792e+006 1.119615921792e+006 1.119615921798e+006 1.119615921794e+006 1.119615921797e+006 1.119222103017e+006 1.119222103016e+006 1.119222103018e+006 1.119222103017e+006 1.119222103016e+006 1.119222103019e+006 1.119222103016e+006 1.119222103017e+006 1.119222103017e+006 1.118756961912e+006 1.118756961912e+006 1.118756961914e+006 1.118756961914e+006 1.118756961915e+006 1.118756961914e+006 1.118756961913e+006 1.118756961912e+006 1.118756961912e+006 1.118298583685e+006 1.118298583689e+006 1.118298583686e+006 1.118298583689e+006 1.118298583687e+006 1.118298583688e+006 1.118298583689e+006 1.118298583689e+006 1.118298583687e+006 1.117772704762e+006 1.117772704761e+006 1.117772704763e+006 1.117772704761e+006 1.117772704763e+006 1.117772704761e+006 1.117772704762e+006 1.117772704761e+006 1.117772704761e+006 1.117228578605e+006 1.117228578602e+006 1.117228578602e+006 1.117228578603e+006 1.117228578600e+006 1.117228578604e+006 1.117228578602e+006 1.117228578603e+006 1.117228578601e+006 1.116650057389e+006 1.116650057390e+006 1.116650057389e+006 1.116650057390e+006 1.116650057389e+006 1.116650057389e+006 1.116650057390e+006 1.116650057391e+006 1.116650057389e+006 1.116009379536e+006 1.116009379536e+006 1.116009379535e+006 1.116009379535e+006 1.116009379536e+006 1.116009379537e+006 1.116009379536e+006 1.116009379535e+006 1.116009379537e+006 1.115379504456e+006 1.115379504455e+006 1.115379504455e+006 1.115379504455e+006 1.115379504455e+006 1.115379504455e+006 1.115379504455e+006 1.115379504454e+006 1.115379504456e+006 1.114673281894e+006 1.114673281892e+006 1.114673281894e+006 1.114673281893e+006 1.114673281893e+006 1.114673281894e+006 1.114673281893e+006 1.114673281893e+006 1.114673281893e+006 1.113959243206e+006 1.113959243205e+006 1.113959243206e+006 1.113959243205e+006 1.113959243205e+006 1.113959243204e+006 1.113959243205e+006 1.113959243206e+006 1.113959243204e+006 1.113201884219e+006 1.113201884217e+006 1.113201884218e+006 1.113201884219e+006 1.113201884218e+006 1.113201884219e+006 1.113201884219e+006 1.113201884218e+006 1.113201884219e+006 1.112410365474e+006 1.112410365475e+006 1.112410365474e+006 1.112410365475e+006 1.112410365474e+006 1.112410365475e+006 1.112410365474e+006 1.112410365475e+006 1.112410365475e+006 1.111591591853e+006 1.111591591852e+006 1.111591591852e+006 1.111591591851e+006 1.111591591853e+006 1.111591591851e+006 1.111591591853e+006 1.111591591852e+006 1.111591591852e+006 1.110716074722e+006 1.110716074722e+006 1.110716074722e+006 1.110716074723e+006 1.110716074722e+006 1.110716074722e+006 1.110716074722e+006 1.110716074722e+006 1.110716074722e+006 1.109836792299e+006 1.109836792299e+006 1.109836792299e+006 1.109836792299e+006 1.109836792300e+006 1.109836792299e+006 1.109836792299e+006 1.109836792300e+006 1.109836792299e+006 1.108900762419e+006 1.108900762420e+006 1.108900762420e+006 1.108900762420e+006 1.108900762420e+006 1.108900762420e+006 1.108900762420e+006 1.108900762420e+006 1.108900762421e+006 1.107939354422e+006 1.107939354423e+006 1.107939354422e+006 1.107939354422e+006 1.107939354422e+006 1.107939354422e+006 1.107939354423e+006 1.107939354422e+006 1.107939354422e+006 1.106961171575e+006 1.106961171575e+006 1.106961171575e+006 1.106961171575e+006 1.106961171575e+006 1.106961171575e+006 1.106961171575e+006 1.106961171575e+006 1.106961171575e+006 1.105914781421e+006 1.105914781421e+006 1.105914781421e+006 1.105914781421e+006 1.105914781421e+006 1.105914781421e+006 1.105914781421e+006 1.105914781421e+006 1.105914781422e+006 1.104868032919e+006 1.104868032919e+006 1.104868032919e+006 1.104868032919e+006 1.104868032918e+006 1.104868032919e+006 1.104868032919e+006 1.104868032919e+006 1.104868032919e+006 1.103772997499e+006 1.103772997499e+006 1.103772997499e+006 1.103772997499e+006 1.103772997499e+006 1.103772997499e+006 1.103772997499e+006 1.103772997499e+006 1.103772997499e+006 1.102632593653e+006 1.102632593653e+006 1.102632593653e+006 1.102632593653e+006 1.102632593653e+006 1.102632593653e+006 1.102632593653e+006 1.102632593653e+006 1.102632593653e+006 1.101491772528e+006 1.101491772528e+006 1.101491772528e+006 1.101491772528e+006 1.101491772528e+006 1.101491772529e+006 1.101491772528e+006 1.101491772528e+006 1.101491772528e+006 1.100287361048e+006 1.100287361049e+006 1.100287361049e+006 1.100287361049e+006 1.100287361048e+006 1.100287361048e+006 1.100287361048e+006 1.100287361048e+006 1.100287361048e+006 1.099062892536e+006 1.099062892536e+006 1.099062892536e+006 1.099062892536e+006 1.099062892536e+006 1.099062892536e+006 1.099062892536e+006 1.099062892536e+006 1.099062892536e+006 1.097817997171e+006 1.097817997171e+006 1.097817997171e+006 1.097817997171e+006 1.097817997171e+006 1.097817997171e+006 1.097817997171e+006 1.097817997171e+006 1.097817997171e+006 1.096520271340e+006 1.096520271340e+006 1.096520271339e+006 1.096520271340e+006 1.096520271340e+006 1.096520271340e+006 1.096520271340e+006 1.096520271340e+006 1.096520271340e+006 1.095204200363e+006 1.095204200363e+006 1.095204200363e+006 1.095204200363e+006 1.095204200363e+006 1.095204200363e+006 1.095204200363e+006 1.095204200363e+006 1.095204200363e+006 1.093866514704e+006 1.093866514704e+006 1.093866514704e+006 1.093866514704e+006 1.093866514704e+006 1.093866514704e+006 1.093866514704e+006 1.093866514703e+006 1.093866514704e+006 1.092463012333e+006 1.092463012333e+006 1.092463012333e+006 1.092463012333e+006 1.092463012333e+006 1.092463012333e+006 1.092463012333e+006 1.092463012333e+006 1.092463012333e+006 1.091055421739e+006 1.091055421739e+006 1.091055421739e+006 1.091055421739e+006 1.091055421739e+006 1.091055421739e+006 1.091055421739e+006 1.091055421739e+006 1.091055421739e+006 1.089616087493e+006 1.089616087493e+006 1.089616087493e+006 1.089616087493e+006 1.089616087493e+006 1.089616087493e+006 1.089616087493e+006 1.089616087493e+006 1.089616087492e+006 1.088146757983e+006 1.088146757984e+006 1.088146757984e+006 1.088146757984e+006 1.088146757984e+006 1.088146757984e+006 1.088146757984e+006 1.088146757984e+006 1.088146757984e+006 1.086649505072e+006 1.086649505072e+006 1.086649505072e+006 1.086649505072e+006 1.086649505072e+006 1.086649505072e+006 1.086649505072e+006 1.086649505072e+006 1.086649505072e+006 1.085093261721e+006 1.085093261721e+006 1.085093261721e+006 1.085093261721e+006 1.085093261720e+006 1.085093261720e+006 1.085093261721e+006 1.085093261721e+006 1.085093261720e+006 1.083521835166e+006 1.083521835166e+006 1.083521835166e+006 1.083521835166e+006 1.083521835166e+006 1.083521835166e+006 1.083521835166e+006 1.083521835166e+006 1.083521835166e+006 1.081970509230e+006 1.081970509230e+006 1.081970509230e+006 1.081970509230e+006 1.081970509230e+006 1.081970509230e+006 1.081970509230e+006 1.081970509230e+006 1.081970509230e+006 1.080339351118e+006 1.080339351118e+006 1.080339351118e+006 1.080339351118e+006 1.080339351118e+006 1.080339351118e+006 1.080339351118e+006 1.080339351118e+006 1.080339351118e+006 1.078678552565e+006 1.078678552566e+006 1.078678552565e+006 1.078678552565e+006 1.078678552565e+006 1.078678552565e+006 1.078678552565e+006 1.078678552565e+006 1.078678552565e+006 1.076986950393e+006 1.076986950392e+006 1.076986950393e+006 1.076986950393e+006 1.076986950393e+006 1.076986950393e+006 1.076986950393e+006 1.076986950393e+006 1.076986950392e+006 1.075267520466e+006 1.075267520466e+006 1.075267520466e+006 1.075267520466e+006 1.075267520466e+006 1.075267520466e+006 1.075267520466e+006 1.075267520466e+006 1.075267520467e+006 1.073565054986e+006 1.073565054986e+006 1.073565054985e+006 1.073565054986e+006 1.073565054986e+006 1.073565054987e+006 1.073565054987e+006 1.073565054987e+006 1.073565054986e+006 1.071838700444e+006 1.071838700443e+006 1.071838700443e+006 1.071838700443e+006 1.071838700443e+006 1.071838700443e+006 1.071838700443e+006 1.071838700444e+006 1.071838700444e+006 1.070064963783e+006 1.070064963783e+006 1.070064963783e+006 1.070064963784e+006 1.070064963784e+006 1.070064963784e+006 1.070064963783e+006 1.070064963784e+006 1.070064963784e+006 1.068244329826e+006 1.068244329827e+006 1.068244329827e+006 1.068244329827e+006 1.068244329828e+006 1.068244329828e+006 1.068244329828e+006 1.068244329827e+006 1.068244329828e+006 1.066404101665e+006 1.066404101666e+006 1.066404101666e+006 1.066404101666e+006 1.066404101666e+006 1.066404101666e+006 1.066404101666e+006 1.066404101666e+006 1.066404101666e+006 1.064512365152e+006 1.064512365152e+006 1.064512365153e+006 1.064512365153e+006 1.064512365152e+006 1.064512365152e+006 1.064512365153e+006 1.064512365153e+006 1.064512365153e+006 1.062601912191e+006 1.062601912191e+006 1.062601912191e+006 1.062601912191e+006 1.062601912190e+006 1.062601912190e+006 1.062601912190e+006 1.062601912191e+006 1.062601912190e+006 1.060756698008e+006 1.060756698007e+006 1.060756698007e+006 1.060756698006e+006 1.060756698005e+006 1.060756698005e+006 1.060756698005e+006 1.060756698005e+006 1.060756698005e+006 1.058939481945e+006 1.058939481944e+006 1.058939481944e+006 1.058939481943e+006 1.058939481943e+006 1.058939481943e+006 1.058939481942e+006 1.058939481943e+006 1.058939481943e+006 1.056955395910e+006 1.056955395910e+006 1.056955395910e+006 1.056955395911e+006 1.056955395913e+006 1.056955395913e+006 1.056955395913e+006 1.056955395914e+006 1.056955395913e+006 1.054914092818e+006 1.054914092818e+006 1.054914092820e+006 1.054914092824e+006 1.054914092826e+006 1.054914092828e+006 1.054914092828e+006 1.054914092828e+006 1.054914092828e+006 1.053093347731e+006 1.053093347732e+006 1.053093347729e+006 1.053093347725e+006 1.053093347721e+006 1.053093347719e+006 1.053093347718e+006 1.053093347717e+006 1.053093347717e+006 1.050950125477e+006 1.050950125476e+006 1.050950125469e+006 1.050950125459e+006 1.050950125449e+006 1.050950125443e+006 1.050950125440e+006 1.050950125439e+006 1.050950125438e+006 1.049139746082e+006 1.049139746080e+006 1.049139746078e+006 1.049139746087e+006 1.049139746089e+006 1.049139746089e+006 1.049139746090e+006 1.049139746092e+006 1.049139746092e+006 1.047003468490e+006 1.047003468487e+006 1.047003468488e+006 1.047003468499e+006 1.047003468506e+006 1.047003468507e+006 1.047003468508e+006 1.047003468510e+006 1.047003468511e+006 1.045078807006e+006 1.045078807004e+006 1.045078807004e+006 1.045078807010e+006 1.045078807014e+006 1.045078807015e+006 1.045078807016e+006 1.045078807016e+006 1.045078807017e+006 1.043288313390e+006 1.043288313390e+006 1.043288313389e+006 1.043288313393e+006 1.043288313395e+006 1.043288313395e+006 1.043288313396e+006 1.043288313396e+006 1.043288313396e+006 1.041540767766e+006 1.041540767766e+006 1.041540767768e+006 1.041540767768e+006 1.041540767769e+006 1.041540767770e+006 1.041540767771e+006 1.041540767771e+006 1.041540767771e+006 1.040067414339e+006 1.040067414340e+006 1.040067414341e+006 1.040067414341e+006 1.040067414342e+006 1.040067414343e+006 1.040067414344e+006 1.040067414344e+006 1.040067414344e+006 1.038685344083e+006 1.038685344083e+006 1.038685344084e+006 1.038685344085e+006 1.038685344085e+006 1.038685344085e+006 1.038685344086e+006 1.038685344086e+006 1.038685344086e+006 1.037303321931e+006 1.037303321931e+006 1.037303321931e+006 1.037303321932e+006 1.037303321932e+006 1.037303321932e+006 1.037303321933e+006 1.037303321933e+006 1.037303321933e+006 1.035921344323e+006 1.035921344323e+006 1.035921344323e+006 1.035921344324e+006 1.035921344324e+006 1.035921344324e+006 1.035921344324e+006 1.035921344324e+006 1.035921344324e+006 1.034539409021e+006 1.034539409021e+006 1.034539409021e+006 1.034539409021e+006 1.034539409021e+006 1.034539409021e+006 1.034539409021e+006 1.034539409021e+006 1.034539409021e+006 1.033157514257e+006 1.033157514257e+006 1.033157514256e+006 1.033157514257e+006 1.033157514256e+006 1.033157514256e+006 1.033157514257e+006 1.033157514256e+006 1.033157514256e+006 1.031775658408e+006 1.031775658408e+006 1.031775658408e+006 1.031775658408e+006 1.031775658408e+006 1.031775658408e+006 1.031775658408e+006 1.031775658408e+006 1.031775658408e+006 1.030393839889e+006 1.030393839889e+006 1.030393839889e+006 1.030393839889e+006 1.030393839889e+006 1.030393839889e+006 1.030393839889e+006 1.030393839889e+006 1.030393839889e+006 1.029012057117e+006 1.029012057117e+006 1.029012057117e+006 1.029012057117e+006 1.029012057117e+006 1.029012057117e+006 1.029012057117e+006 1.029012057117e+006 1.029012057117e+006 1.027630308505e+006 1.027630308504e+006 1.027630308505e+006 1.027630308505e+006 1.027630308505e+006 1.027630308505e+006 1.027630308505e+006 1.027630308505e+006 1.027630308504e+006 1.026248592458e+006 1.026248592457e+006 1.026248592458e+006 1.026248592457e+006 1.026248592457e+006 1.026248592458e+006 1.026248592458e+006 1.026248592457e+006 1.026248592457e+006 1.024866907375e+006 1.024866907375e+006 1.024866907375e+006 1.024866907375e+006 1.024866907375e+006 1.024866907375e+006 1.024866907375e+006 1.024866907375e+006 1.024866907375e+006 1.023485251648e+006 1.023485251648e+006 1.023485251648e+006 1.023485251648e+006 1.023485251648e+006 1.023485251648e+006 1.023485251648e+006 1.023485251647e+006 1.023485251648e+006 1.022103623658e+006 1.022103623659e+006 1.022103623659e+006 1.022103623658e+006 1.022103623658e+006 1.022103623658e+006 1.022103623658e+006 1.022103623658e+006 1.022103623658e+006 1.020722021781e+006 1.020722021781e+006 1.020722021781e+006 1.020722021781e+006 1.020722021781e+006 1.020722021781e+006 1.020722021781e+006 1.020722021781e+006 1.020722021781e+006 1.019340444382e+006 1.019340444383e+006 1.019340444383e+006 1.019340444382e+006 1.019340444382e+006 1.019340444382e+006 1.019340444382e+006 1.019340444382e+006 1.019340444382e+006 1.017958889819e+006 1.017958889819e+006 1.017958889819e+006 1.017958889819e+006 1.017958889819e+006 1.017958889819e+006 1.017958889818e+006 1.017958889818e+006 1.017958889819e+006 1.016577356442e+006 1.016577356442e+006 1.016577356442e+006 1.016577356442e+006 1.016577356442e+006 1.016577356442e+006 1.016577356442e+006 1.016577356442e+006 1.016577356442e+006 1.015195842595e+006 1.015195842595e+006 1.015195842595e+006 1.015195842595e+006 1.015195842595e+006 1.015195842595e+006 1.015195842595e+006 1.015195842594e+006 1.015195842595e+006 1.013814346615e+006 1.013814346615e+006 1.013814346615e+006 1.013814346615e+006 1.013814346615e+006 1.013814346615e+006 1.013814346615e+006 1.013814346615e+006 1.013814346615e+006 1.012432866834e+006 1.012432866834e+006 1.012432866833e+006 1.012432866833e+006 1.012432866833e+006 1.012432866833e+006 1.012432866833e+006 1.012432866833e+006 1.012432866833e+006 1.011051401576e+006 1.011051401576e+006 1.011051401576e+006 1.011051401576e+006 1.011051401576e+006 1.011051401576e+006 1.011051401576e+006 1.011051401576e+006 1.011051401576e+006 1.009669949163e+006 1.009669949163e+006 1.009669949163e+006 1.009669949163e+006 1.009669949163e+006 1.009669949163e+006 1.009669949163e+006 1.009669949163e+006 1.009669949163e+006 1.008288507911e+006 1.008288507911e+006 1.008288507911e+006 1.008288507911e+006 1.008288507911e+006 1.008288507911e+006 1.008288507911e+006 1.008288507911e+006 1.008288507911e+006 1.006907076131e+006 1.006907076131e+006 1.006907076131e+006 1.006907076131e+006 1.006907076131e+006 1.006907076131e+006 1.006907076131e+006 1.006907076131e+006 1.006907076131e+006 1.005525652132e+006 1.005525652132e+006 1.005525652132e+006 1.005525652132e+006 1.005525652132e+006 1.005525652132e+006 1.005525652132e+006 1.005525652132e+006 1.005525652132e+006 1.004144234218e+006 1.004144234218e+006 1.004144234218e+006 1.004144234218e+006 1.004144234218e+006 1.004144234218e+006 1.004144234218e+006 1.004144234218e+006 1.004144234218e+006 1.002762820692e+006 1.002762820692e+006 1.002762820692e+006 1.002762820692e+006 1.002762820692e+006 1.002762820692e+006 1.002762820692e+006 1.002762820692e+006 1.002762820692e+006 1.001381409853e+006 1.001381409853e+006 1.001381409853e+006 1.001381409853e+006 1.001381409853e+006 1.001381409853e+006 1.001381409853e+006 1.001381409853e+006 1.001381409853e+006 1.000000000000e+006 1.000000000000e+006 1.000000000000e+006 1.000000000000e+006 1.000000000000e+006 1.000000000000e+006 1.000000000000e+006 1.000000000000e+006 1.000000000000e+006 
        </DataArray>
        <DataArray type="Float64" Name="MOLAR_FRACTION" format="ascii">