<?xml version="1.0"?>
<VTKFile type="UnstructuredGrid" version="0.1" byte_order="LittleEndian">
  <UnstructuredGrid>
    <Piece NumberOfPoints="909" NumberOfCells="800">
      <Points>
        <DataArray type="Float64" NumberOfComponents="3" format="ascii">
          0.000000000000e+000 0.000000000000e+000 0.000000000000e+000
          2.000000000000e+000 0.000000000000e+000 0.000000000000e+000
          2.000000000000e+000 2.500000000000e+000 0.000000000000e+000
          0.000000000000e+000 2.500000000000e+000 0.000000000000e+000
          2.000000000000e+000 5.000000000000e+000 0.000000000000e+000
          0.000000000000e+000 5.000000000000e+000 0.000000000000e+000
          2.000000000000e+000 7.500000000000e+000 0.000000000000e+000
          0.000000000000e+000 7.500000000000e+000 0.000000000000e+000
          2.000000000000e+000 1.000000000000e+001 0.000000000000e+000
          0.000000000000e+000 1.000000000000e+001 0.000000000000e+000
          2.000000000000e+000 1.250000000000e+001 0.000000000000e+000
          0.000000000000e+000 1.250000000000e+001 0.000000000000e+000
          2.000000000000e+000 1.500000000000e+001 0.000000000000e+000
          0.000000000000e+000 1.500000000000e+001 0.000000000000e+000
          2.000000000000e+000 1.750000000000e+001 0.000000000000e+000
          0.000000000000e+000 1.750000000000e+001 0.000000000000e+000
          2.000000000000e+000 2.000000000000e+001 0.000000000000e+000
          0.000000000000e+000 2.000000000000e+001 0.000000000000e+000
          4.000000000000e+000 0.000000000000e+000 0.000000000000e+000
          4.000000000000e+000 2.500000000000e+000 0.000000000000e+000
          4.000000000000e+000 5.000000000000e+000 0.000000000000e+000
          4.000000000000e+000 7.500000000000e+000 0.000000000000e+000
          4.000000000000e+000 1.000000000000e+001 0.000000000000e+000
          4.000000000000e+000 1.250000000000e+001 0.000000000000e+000
          4.000000000000e+000 1.500000000000e+001 0.000000000000e+000
          4.000000000000e+000 1.750000000000e+001 0.000000000000e+000
          4.000000000000e+000 2.000000000000e+001 0.000000000000e+000
          6.000000000000e+000 0.000000000000e+000 0.000000000000e+000
          6.000000000000e+000 2.500000000000e+000 0.000000000000e+000
          6.000000000000e+000 5.000000000000e+000 0.000000000000e+000
          6.000000000000e+000 7.500000000000e+000 0.000000000000e+000
          6.000000000000e+000 1.000000000000e+001 0.000000000000e+000
          6.000000000000e+000 1.250000000000e+001 0.000000000000e+000
          6.000000000000e+000 1.500000000000e+001 0.000000000000e+000
          6.000000000000e+000 1.750000000000e+001 0.000000000000e+000
          6.000000000000e+000 2.000000000000e+001 0.000000000000e+000
          8.000000000000e+000 0.000000000000e+000 0.000000000000e+000
          8.000000000000e+000 2.500000000000e+000 0.000000000000e+000
          8.000000000000e+000 5.000000000000e+000 0.000000000000e+000
          8.000000000000e+000 7.500000000000e+000 0.000000000000e+000
          8.000000000000e+000 1.000000000000e+001 0.000000000000e+000
          8.000000000000e+000 1.250000000000e+001 0.000000000000e+000
          8.000000000000e+000 1.500000000000e+001 0.000000000000e+000
          8.000000000000e+000 1.750000000000e+001 0.000000000000e+000
          8.000000000000e+000 2.000000000000e+001 0.000000000000e+000
          1.000000000000e+001 0.000000000000e+000 0.000000000000e+000
          1.000000000000e+001 2.500000000000e+000 0.000000000000e+000
          1.000000000000e+001 5.000000000000e+000 0.000000000000e+000
          1.000000000000e+001 7.500000000000e+000 0.000000000000e+000
          1.000000000000e+001 1.000000000000e+001 0.000000000000e+000
          1.000000000000e+001 1.250000000000e+001 0.000000000000e+000
          1.000000000000e+001 1.500000000000e+001 0.000000000000e+000
          1.000000000000e+001 1.750000000000e+001 0.000000000000e+000
          1.000000000000e+001 2.000000000000e+001 0.000000000000e+000
          1.200000000000e+001 0.000000000000e+000 0.000000000000e+000
          1.200000000000e+001 2.500000000000e+000 0.000000000000e+000
          1.200000000000e+001 5.000000000000e+000 0.000000000000e+000
          1.200000000000e+001 7.500000000000e+000 0.000000000000e+000
          1.200000000000e+001 1.000000000000e+001 0.000000000000e+000
          1.200000000000e+001 1.250000000000e+001 0.000000000000e+000
          1.200000000000e+001 1.500000000000e+001 0.000000000000e+000
          1.200000000000e+001 1.750000000000e+001 0.000000000000e+000
          1.200000000000e+001 2.000000000000e+001 0.000000000000e+000
          1.400000000000e+001 0.000000000000e+000 0.000000000000e+000
          1.400000000000e+001 2.500000000000e+000 0.000000000000e+000
          1.400000000000e+001 5.000000000000e+000 0.000000000000e+000
          1.400000000000e+001 7.500000000000e+000 0.000000000000e+000
          1.400000000000e+001 1.000000000000e+001 0.000000000000e+000
          1.400000000000e+001 1.250000000000e+001 0.000000000000e+000
          1.400000000000e+001 1.500000000000e+001 0.000000000000e+000
          1.400000000000e+001 1.750000000000e+001 0.000000000000e+000
          1.400000000000e+001 2.000000000000e+001 0.000000000000e+000
          1.600000000000e+001 0.000000000000e+000 0.000000000000e+000
          1.600000000000e+001 2.500000000000e+000 0.000000000000e+000
          1.600000000000e+001 5.000000000000e+000 0.000000000000e+000
          1.600000000000e+001 7.500000000000e+000 0.000000000000e+000
          1.600000000000e+001 1.000000000000e+001 0.000000000000e+000
          1.600000000000e+001 1.250000000000e+001 0.000000000000e+000
          1.600000000000e+001 1.500000000000e+001 0.000000000000e+000
          1.600000000000e+001 1.750000000000e+001 0.000000000000e+000
          1.600000000000e+001 2.000000000000e+001 0.000000000000e+000
          1.800000000000e+001 0.000000000000e+000 0.000000000000e+000
          1.800000000000e+001 2.500000000000e+000 0.000000000000e+000
          1.800000000000e+001 5.000000000000e+000 0.000000000000e+000
          1.800000000000e+001 7.500000000000e+000 0.000000000000e+000
          1.800000000000e+001 1.000000000000e+001 0.000000000000e+000
          1.800000000000e+001 1.250000000000e+001 0.000000000000e+000
          1.800000000000e+001 1.500000000000e+001 0.000000000000e+000
          1.800000000000e+001 1.750000000000e+001 0.000000000000e+000
          1.800000000000e+001 2.000000000000e+001 0.000000000000e+000
          2.000000000000e+001 0.000000000000e+000 0.000000000000e+000
          2.000000000000e+001 2.500000000000e+000 0.000000000000e+000
          2.000000000000e+001 5.000000000000e+000 0.000000000000e+000
          2.000000000000e+001 7.500000000000e+000 0.000000000000e+000
          2.000000000000e+001 1.000000000000e+001 0.000000000000e+000
          2.000000000000e+001 1.250000000000e+001 0.000000000000e+000
          2.000000000000e+001 1.500000000000e+001 0.000000000000e+000
          2.000000000000e+001 1.750000000000e+001 0.000000000000e+000
          2.000000000000e+001 2.000000000000e+001 0.000000000000e+000
          2.200000000000e+001 0.000000000000e+000 0.000000000000e+000
          2.200000000000e+001 2.500000000000e+000 0.000000000000e+000
          2.200000000000e+001 5.000000000000e+000 0.000000000000e+000
          2.200000000000e+001 7.500000000000e+000 0.000000000000e+000
          2.200000000000e+001 1.000000000000e+001 0.000000000000e+000
          2.200000000000e+001 1.250000000000e+001 0.000000000000e+000
          2.200000000000e+001 1.500000000000e+001 0.000000000000e+000
          2.200000000000e+001 1.750000000000e+001 0.000000000000e+000
          2.200000000000e+001 2.000000000000e+001 0.000000000000e+000
          2.400000000000e+001 0.000000000000e+000 0.000000000000e+000
          2.400000000000e+001 2.500000000000e+000 0.000000000000e+000
          2.400000000000e+001 5.000000000000e+000 0.000000000000e+000
          2.400000000000e+001 7.500000000000e+000 0.000000000000e+000
          2.400000000000e+001 1.000000000000e+001 0.000000000000e+000
          2.400000000000e+001 1.250000000000e+001 0.000000000000e+000
          2.400000000000e+001 1.500000000000e+001 0.000000000000e+000
          2.400000000000e+001 1.750000000000e+001 0.000000000000e+000
          2.400000000000e+001 2.000000000000e+001 0.000000000000e+000
          2.600000000000e+001 0.000000000000e+000 0.000000000000e+000
          2.600000000000e+001 2.500000000000e+000 0.000000000000e+000
          2.600000000000e+001 5.000000000000e+000 0.000000000000e+000
          2.600000000000e+001 7.500000000000e+000 0.000000000000e+000
          2.600000000000e+001 1.000000000000e+001 0.000000000000e+000
          2.600000000000e+001 1.250000000000e+001 0.000000000000e+000
          2.600000000000e+001 1.500000000000e+001 0.000000000000e+000
          2.600000000000e+001 1.750000000000e+001 0.000000000000e+000
          2.600000000000e+001 2.000000000000e+001 0.000000000000e+000
          2.800000000000e+001 0.000000000000e+000 0.000000000000e+000
          2.800000000000e+001 2.500000000000e+000 0.000000000000e+000
          2.800000000000e+001 5.000000000000e+000 0.000000000000e+000
          2.800000000000e+001 7.500000000000e+000 0.000000000000e+000
          2.800000000000e+001 1.000000000000e+001 0.000000000000e+000
          2.800000000000e+001 1.250000000000e+001 0.000000000000e+000
          2.800000000000e+001 1.500000000000e+001 0.000000000000e+000
          2.800000000000e+001 1.750000000000e+001 0.000000000000e+000
          2.800000000000e+001 2.000000000000e+001 0.000000000000e+000
          3.000000000000e+001 0.000000000000e+000 0.000000000000e+000
          3.000000000000e+001 2.500000000000e+000 0.000000000000e+000
          3.000000000000e+001 5.000000000000e+000 0.000000000000e+000
          3.000000000000e+001 7.500000000000e+000 0.000000000000e+000
[...]
      <PointData Scalars="LIQUID_PRESSURE">
        <DataArray type="Float64" Name="LIQUID_PRESSURE" format="ascii">
          1.027768593924e+006 1.027779044830e+006 1.027779044840e+006 1.027768593852e+006 1.027779044872e+006 1.027768593805e+006 1.027779044838e+006 1.027768593883e+006 1.027779044855e+006 1.027768593863e+006 1.027779044894e+006 1.027768593760e+006 1.027779044886e+006 1.027768593764e+006 1.027779044905e+006 1.027768593736e+006 1.027779044930e+006 1.027768593672e+006 1.027764138300e+006 1.027764138332e+006 1.027764138349e+006 1.027764138317e+006 1.027764138320e+006 1.027764138359e+006 1.027764138338e+006 1.027764138354e+006 1.027764138378e+006 1.027712814417e+006 1.027712814434e+006 1.027712814447e+006 1.027712814423e+006 1.027712814428e+006 1.027712814445e+006 1.027712814429e+006 1.027712814432e+006 1.027712814444e+006 1.027704882469e+006 1.027704882481e+006 1.027704882491e+006 1.027704882469e+006 1.027704882467e+006 1.027704882479e+006 1.027704882472e+006 1.027704882468e+006 1.027704882474e+006 1.027640850749e+006 1.027640850754e+006 1.027640850753e+006 1.027640850745e+006 1.027640850743e+006 1.027640850754e+006 1.027640850751e+006 1.027640850748e+006 1.027640850756e+006 1.027571473176e+006 1.027571473179e+006 1.027571473178e+006 1.027571473174e+006 1.027571473173e+006 1.027571473177e+006 1.027571473178e+006 1.027571473182e+006 1.027571473184e+006 1.027528527918e+006 1.027528527914e+006 1.027528527916e+006 1.027528527911e+006 1.027528527915e+006 1.027528527912e+006 1.027528527919e+006 1.027528527918e+006 1.027528527922e+006 1.027419726324e+006 1.027419726324e+006 1.027419726320e+006 1.027419726320e+006 1.027419726320e+006 1.027419726323e+006 1.027419726330e+006 1.027419726333e+006 1.027419726330e+006 1.027346196520e+006 1.027346196515e+006 1.027346196515e+006 1.027346196515e+006 1.027346196515e+006 1.027346196517e+006 1.027346196526e+006 1.027346196527e+006 1.027346196527e+006 1.027244027494e+006 1.027244027501e+006 1.027244027499e+006 1.027244027495e+006 1.027244027495e+006 1.027244027495e+006 1.027244027506e+006 1.027244027507e+006 1.027244027503e+006 1.027122009018e+006 1.027122009024e+006 1.027122009019e+006 1.027122009016e+006 1.027122009011e+006 1.027122009013e+006 1.027122009026e+006 1.027122009025e+006 1.027122009024e+006 1.027016708963e+006 1.027016708962e+006 1.027016708963e+006 1.027016708954e+006 1.027016708955e+006 1.027016708963e+006 1.027016708960e+006 1.027016708961e+006 1.027016708960e+006 1.026866657996e+006 1.026866657989e+006 1.026866657990e+006 1.026866657987e+006 1.026866657988e+006 1.026866657988e+006 1.026866657990e+006 1.026866657986e+006 1.026866657985e+006 1.026741738750e+006 1.026741738752e+006 1.026741738748e+006 1.026741738751e+006 1.026741738746e+006 1.026741738748e+006 1.026741738749e+006 1.026741738748e+006 1.026741738744e+006 1.026580473155e+006 1.026580473155e+006 1.026580473157e+006 1.026580473154e+006 1.026580473154e+006 1.026580473151e+006 1.026580473151e+006 1.026580473149e+006 1.026580473151e+006 1.026420933905e+006 1.026420933903e+006 1.026420933903e+006 1.026420933902e+006 1.026420933902e+006 1.026420933901e+006 1.026420933901e+006 1.026420933900e+006 1.026420933901e+006 1.026259377162e+006 1.026259377166e+006 1.026259377164e+006 1.026259377164e+006 1.026259377167e+006 1.026259377166e+006 1.026259377159e+006 1.026259377164e+006 1.026259377162e+006 1.026060028192e+006 1.026060028196e+006 1.026060028196e+006 1.026060028198e+006 1.026060028200e+006 1.026060028198e+006 1.026060028192e+006 1.026060028192e+006 1.026060028194e+006 1.025891867763e+006 1.025891867760e+006 1.025891867763e+006 1.025891867768e+006 1.025891867768e+006 1.025891867763e+006 1.025891867761e+006 1.025891867760e+006 1.025891867764e+006 1.025677355297e+006 1.025677355297e+006 1.025677355302e+006 1.025677355306e+006 1.025677355304e+006 1.025677355306e+006 1.025677355303e+006 1.025677355299e+006 1.025677355302e+006 1.025476323767e+006 1.025476323775e+006 1.025476323775e+006 1.025476323775e+006 1.025476323776e+006 1.025476323774e+006 1.025476323774e+006 1.025476323775e+006 1.025476323772e+006 1.025258477253e+006 1.025258477254e+006 1.025258477258e+006 1.025258477258e+006 1.025258477258e+006 1.025258477258e+006 1.025258477259e+006 1.025258477260e+006 1.025258477260e+006 1.025029331340e+006 1.025029331340e+006 1.025029331340e+006 1.025029331345e+006 1.025029331343e+006 1.025029331342e+006 1.025029331346e+006 1.025029331345e+006 1.025029331346e+006 1.024803448787e+006 1.024803448792e+006 1.024803448789e+006 1.024803448790e+006 1.024803448790e+006 1.024803448790e+006 1.024803448791e+006 1.024803448795e+006 1.024803448788e+006 1.024547230252e+006 1.024547230256e+006 1.024547230258e+006 1.024547230255e+006 1.024547230255e+006 1.024547230248e+006 1.024547230251e+006 1.024547230254e+006 1.024547230251e+006 1.024307349048e+006 1.024307349052e+006 1.024307349051e+006 1.024307349050e+006 1.024307349044e+006 1.024307349041e+006 1.024307349041e+006 1.024307349046e+006 1.024307349043e+006 1.024042762169e+006 1.024042762167e+006 1.024042762167e+006 1.024042762164e+006 1.024042762161e+006 1.024042762154e+006 1.024042762159e+006 1.024042762161e+006 1.024042762163e+006 1.023769604485e+006 1.023769604485e+006 1.023769604478e+006 1.023769604480e+006 1.023769604477e+006 1.023769604474e+006 1.023769604476e+006 1.023769604477e+006 1.023769604480e+006 1.023508055521e+006 1.023508055514e+006 1.023508055515e+006 1.023508055514e+006 1.023508055515e+006 1.023508055509e+006 1.023508055510e+006 1.023508055510e+006 1.023508055510e+006 1.023208761801e+006 1.023208761800e+006 1.023208761801e+006 1.023208761802e+006 1.023208761799e+006 1.023208761795e+006 1.023208761796e+006 1.023208761794e+006 1.023208761791e+006 1.022926399830e+006 1.022926399830e+006 1.022926399829e+006 1.022926399831e+006 1.022926399828e+006 1.022926399824e+006 1.022926399825e+006 1.022926399821e+006 1.022926399825e+006 1.022631161755e+006 1.022631161753e+006 1.022631161752e+006 1.022631161755e+006 1.022631161752e+006 1.022631161750e+006 1.022631161748e+006 1.022631161745e+006 1.022631161746e+006 1.022312283568e+006 1.022312283569e+006 1.022312283567e+006 1.022312283569e+006 1.022312283570e+006 1.022312283567e+006 1.022312283565e+006 1.022312283564e+006 1.022312283564e+006 1.022015201001e+006 1.022015201000e+006 1.022015200999e+006 1.022015200999e+006 1.022015201000e+006 1.022015200998e+006 1.022015200995e+006 1.022015200993e+006 1.022015200994e+006 1.021687239371e+006 1.021687239368e+006 1.021687239368e+006 1.021687239367e+006 1.021687239366e+006 1.021687239368e+006 1.021687239364e+006 1.021687239362e+006 1.021687239360e+006 1.021359394804e+006 1.021359394807e+006 1.021359394806e+006 1.021359394807e+006 1.021359394804e+006 1.021359394803e+006 1.021359394802e+006 1.021359394800e+006 1.021359394797e+006 1.021035697295e+006 1.021035697298e+006 1.021035697299e+006 1.021035697297e+006 1.021035697298e+006 1.021035697297e+006 1.021035697295e+006 1.021035697294e+006 1.021035697288e+006 1.020688779246e+006 1.020688779247e+006 1.020688779247e+006 1.020688779248e+006 1.020688779250e+006 1.020688779250e+006 1.020688779248e+006 1.020688779244e+006 1.020688779243e+006 1.020344578239e+006 1.020344578238e+006 1.020344578235e+006 1.020344578239e+006 1.020344578240e+006 1.020344578240e+006 1.020344578242e+006 1.020344578236e+006 1.020344578236e+006 1.020005088657e+006 1.020005088659e+006 1.020005088658e+006 1.020005088660e+006 1.020005088660e+006 1.020005088660e+006 1.020005088661e+006 1.020005088659e+006 1.020005088659e+006 1.019636077382e+006 1.019636077381e+006 1.019636077383e+006 1.019636077381e+006 1.019636077381e+006 1.019636077383e+006 1.019636077381e+006 1.019636077382e+006 1.019636077380e+006 1.019279194550e+006 1.019279194549e+006 1.019279194548e+006 1.019279194548e+006 1.019279194548e+006 1.019279194547e+006 1.019279194550e+006 1.019279194547e+006 1.019279194547e+006 1.018914587431e+006 1.018914587431e+006 1.018914587429e+006 1.018914587428e+006 1.018914587428e+006 1.018914587428e+006 1.018914587428e+006 1.018914587427e+006 1.018914587426e+006 1.018540772303e+006 1.018540772303e+006 1.018540772303e+006 1.018540772303e+006 1.018540772301e+006 1.018540772300e+006 1.018540772298e+006 1.018540772297e+006 1.018540772294e+006 1.018174251458e+006 1.018174251460e+006 1.018174251460e+006 1.018174251461e+006 1.018174251456e+006 1.018174251456e+006 1.018174251454e+006 1.018174251451e+006 1.018174251449e+006 1.017783939089e+006 1.017783939092e+006 1.017783939092e+006 1.017783939093e+006 1.017783939090e+006 1.017783939089e+006 1.017783939089e+006 1.017783939088e+006 1.017783939088e+006 1.017390706786e+006 1.017390706787e+006 1.017390706789e+006 1.017390706788e+006 1.017390706789e+006 1.017390706786e+006 1.017390706787e+006 1.017390706789e+006 1.017390706789e+006 1.017023836027e+006 1.017023836029e+006 1.017023836030e+006 1.017023836031e+006 1.017023836032e+006 1.017023836030e+006 1.017023836029e+006 1.017023836032e+006 1.017023836036e+006 1.016621095967e+006 1.016621095971e+006 1.016621095973e+006 1.016621095974e+006 1.016621095976e+006 1.016621095973e+006 1.016621095975e+006 1.016621095978e+006 1.016621095980e+006 1.016226966555e+006 1.016226966556e+006 1.016226966557e+006 1.016226966559e+006 1.016226966558e+006 1.016226966560e+006 1.016226966561e+006 1.016226966564e+006 1.016226966566e+006 1.015829033606e+006 1.015829033605e+006 1.015829033603e+006 1.015829033604e+006 1.015829033607e+006 1.015829033609e+006 1.015829033611e+006 1.015829033613e+006 1.015829033611e+006 1.015419562935e+006 1.015419562936e+006 1.015419562934e+006 1.015419562934e+006 1.015419562937e+006 1.015419562939e+006 1.015419562940e+006 1.015419562941e+006 1.015419562942e+006 1.015020821412e+006 1.015020821414e+006 1.015020821415e+006 1.015020821414e+006 1.015020821417e+006 1.015020821416e+006 1.015020821418e+006 1.015020821417e+006 1.015020821419e+006 1.014620109751e+006 1.014620109749e+006 1.014620109751e+006 1.014620109752e+006 1.014620109752e+006 1.014620109752e+006 1.014620109751e+006 1.014620109752e+006 1.014620109753e+006 1.014205548345e+006 1.014205548348e+006 1.014205548348e+006 1.014205548347e+006 1.014205548345e+006 1.014205548345e+006 1.014205548345e+006 1.014205548345e+006 1.014205548347e+006 1.013791487508e+006 1.013791487510e+006 1.013791487511e+006 1.013791487509e+006 1.013791487507e+006 1.013791487508e+006 1.013791487506e+006 1.013791487507e+006 1.013791487508e+006 1.013388238339e+006 1.013388238341e+006 1.013388238340e+006 1.013388238340e+006 1.013388238340e+006 1.013388238339e+006 1.013388238338e+006 1.013388238339e+006 1.013388238338e+006 1.012982161149e+006 1.012982161149e+006 1.012982161152e+006 1.012982161151e+006 1.012982161150e+006 1.012982161150e+006 1.012982161149e+006 1.012982161150e+006 1.012982161148e+006 1.012524920795e+006 1.012524920794e+006 1.012524920795e+006 1.012524920795e+006 1.012524920792e+006 1.012524920792e+006 1.012524920792e+006 1.012524920792e+006 1.012524920793e+006 1.012144033808e+006 1.012144033809e+006 1.012144033810e+006 1.012144033813e+006 1.012144033813e+006 1.012144033813e+006 1.012144033815e+006 1.012144033815e+006 1.012144033814e+006 1.011752603232e+006 1.011752603234e+006 1.011752603234e+006 1.011752603229e+006 1.011752603226e+006 1.011752603223e+006 1.011752603223e+006 1.011752603223e+006 1.011752603222e+006 1.011309334263e+006 1.011309334265e+006 1.011309334266e+006 1.011309334276e+006 1.011309334283e+006 1.011309334287e+006 1.011309334288e+006 1.011309334291e+006 1.011309334289e+006 1.010838172063e+006 1.010838172062e+006 1.010838172062e+006 1.010838172044e+006 1.010838172040e+006 1.010838172036e+006 1.010838172031e+006 1.010838172030e+006 1.010838172033e+006 1.010559456010e+006 1.010559456013e+006 1.010559456013e+006 1.010559456035e+006 1.010559456042e+006 1.010559456048e+006 1.010559456048e+006 1.010559456051e+006 1.010559456053e+006 1.009979444324e+006 1.009979444324e+006 1.009979444329e+006 1.009979444308e+006 1.009979444302e+006 1.009979444300e+006 1.009979444294e+006 1.009979444293e+006 1.009979444293e+006 1.009734461825e+006 1.009734461828e+006 1.009734461828e+006 1.009734461835e+006 1.009734461834e+006 1.009734461836e+006 1.009734461836e+006 1.009734461835e+006 1.009734461836e+006 1.009207432178e+006 1.009207432184e+006 1.009207432176e+006 1.009207432186e+006 1.009207432183e+006 1.009207432185e+006 1.009207432184e+006 1.009207432184e+006 1.009207432184e+006 1.008819254698e+006 1.008819254699e+006 1.008819254695e+006 1.008819254697e+006 1.008819254692e+006 1.008819254693e+006 1.008819254692e+006 1.008819254690e+006 1.008819254693e+006 1.008444861048e+006 1.008444861050e+006 1.008444861045e+006 1.008444861048e+006 1.008444861045e+006 1.008444861044e+006 1.008444861043e+006 1.008444861044e+006 1.008444861042e+006 1.008031260425e+006 1.008031260424e+006 1.008031260424e+006 1.008031260425e+006 1.008031260423e+006 1.008031260422e+006 1.008031260423e+006 1.008031260422e+006 1.008031260423e+006 1.007638213892e+006 1.007638213893e+006 1.007638213894e+006 1.007638213894e+006 1.007638213894e+006 1.007638213895e+006 1.007638213894e+006 1.007638213893e+006 1.007638213893e+006 1.007229356386e+006 1.007229356387e+006 1.007229356388e+006 1.007229356389e+006 1.007229356388e+006 1.007229356387e+006 1.007229356388e+006 1.007229356387e+006 1.007229356386e+006 1.006834248898e+006 1.006834248898e+006 1.006834248899e+006 1.006834248900e+006 1.006834248899e+006 1.006834248899e+006 1.006834248898e+006 1.006834248898e+006 1.006834248897e+006 1.006484736682e+006 1.006484736682e+006 1.006484736683e+006 1.006484736684e+006 1.006484736684e+006 1.006484736682e+006 1.006484736682e+006 1.006484736682e+006 1.006484736680e+006 1.006088896077e+006 1.006088896076e+006 1.006088896076e+006 1.006088896077e+006 1.006088896077e+006 1.006088896077e+006 1.006088896076e+006 1.006088896075e+006 1.006088896077e+006 1.005729690096e+006 1.005729690097e+006 1.005729690097e+006 1.005729690097e+006 1.005729690095e+006 1.005729690095e+006 1.005729690096e+006 1.005729690095e+006 1.005729690095e+006 1.005386901575e+006 1.005386901573e+006 1.005386901574e+006 1.005386901574e+006 1.005386901573e+006 1.005386901573e+006 1.005386901573e+006 1.005386901573e+006 1.005386901573e+006 1.005025184755e+006 1.005025184754e+006 1.005025184753e+006 1.005025184754e+006 1.005025184754e+006 1.005025184753e+006 1.005025184753e+006 1.005025184754e+006 1.005025184753e+006 1.004728621751e+006 1.004728621752e+006 1.004728621752e+006 1.004728621752e+006 1.004728621753e+006 1.004728621753e+006 1.004728621753e+006 1.004728621752e+006 1.004728621753e+006 1.004464741372e+006 1.004464741373e+006 1.004464741374e+006 1.004464741374e+006 1.004464741374e+006 1.004464741374e+006 1.004464741374e+006 1.004464741373e+006 1.004464741372e+006 1.004241494119e+006 1.004241494119e+006 1.004241494120e+006 1.004241494120e+006 1.004241494120e+006 1.004241494120e+006 1.004241494120e+006 1.004241494119e+006 1.004241494119e+006 1.004018249114e+006 1.004018249114e+006 1.004018249115e+006 1.004018249115e+006 1.004018249115e+006 1.004018249115e+006 1.004018249114e+006 1.004018249114e+006 1.004018249114e+006 1.003795005579e+006 1.003795005579e+006 1.003795005579e+006 1.003795005579e+006 1.003795005580e+006 1.003795005579e+006 1.003795005579e+006 1.003795005578e+006 1.003795005579e+006 1.003571763376e+006 1.003571763376e+006 1.003571763377e+006 1.003571763376e+006 1.003571763376e+006 1.003571763376e+006 1.003571763376e+006 1.003571763376e+006 1.003571763376e+006 1.003348522430e+006 1.003348522430e+006 1.003348522430e+006 1.003348522430e+006 1.003348522430e+006 1.003348522430e+006 1.003348522429e+006 1.003348522429e+006 1.003348522429e+006 1.003125282665e+006 1.003125282665e+006 1.003125282664e+006 1.003125282664e+006 1.003125282664e+006 1.003125282664e+006 1.003125282664e+006 1.003125282664e+006 1.003125282664e+006 1.002902043993e+006 1.002902043993e+006 1.002902043993e+006 1.002902043992e+006 1.002902043992e+006 1.002902043992e+006 1.002902043992e+006 1.002902043992e+006 1.002902043992e+006 1.002678806325e+006 1.002678806325e+006 1.002678806325e+006 1.002678806325e+006 1.002678806325e+006 1.002678806325e+006 1.002678806324e+006 1.002678806324e+006 1.002678806324e+006 1.002455569571e+006 1.002455569571e+006 1.002455569571e+006 1.002455569571e+006 1.002455569571e+006 1.002455569571e+006 1.002455569571e+006 1.002455569571e+006 1.002455569570e+006 1.002232333643e+006 1.002232333643e+006 1.002232333643e+006 1.002232333643e+006 1.002232333643e+006 1.002232333643e+006 1.002232333643e+006 1.002232333643e+006 1.002232333643e+006 1.002009098452e+006 1.002009098452e+006 1.002009098452e+006 1.002009098452e+006 1.002009098452e+006 1.002009098452e+006 1.002009098452e+006 1.002009098452e+006 1.002009098452e+006 1.001785863908e+006 1.001785863908e+006 1.001785863908e+006 1.001785863908e+006 1.001785863908e+006 1.001785863908e+006 1.001785863908e+006 1.001785863908e+006 1.001785863908e+006 1.001562629921e+006 1.001562629921e+006 1.001562629921e+006 1.001562629921e+006 1.001562629921e+006 1.001562629921e+006 1.001562629921e+006 1.001562629921e+006 1.001562629921e+006 1.001339396401e+006 1.001339396401e+006 1.001339396401e+006 1.001339396401e+006 1.001339396401e+006 1.001339396402e+006 1.001339396402e+006 1.001339396401e+006 1.001339396401e+006 1.001116163258e+006 1.001116163258e+006 1.001116163258e+006 1.001116163258e+006 1.001116163258e+006 1.001116163258e+006 1.001116163258e+006 1.001116163258e+006 1.001116163258e+006 1.000892930400e+006 1.000892930400e+006 1.000892930400e+006 1.000892930400e+006 1.000892930400e+006 1.000892930400e+006 1.000892930400e+006 1.000892930400e+006 1.000892930400e+006 1.000669697736e+006 1.000669697736e+006 1.000669697736e+006 1.000669697736e+006 1.000669697736e+006 1.000669697736e+006 1.000669697736e+006 1.000669697736e+006 1.000669697736e+006 1.000446465176e+006 1.000446465176e+006 1.000446465176e+006 1.000446465176e+006 1.000446465176e+006 1.000446465176e+006 1.000446465176e+006 1.000446465176e+006 1.000446465176e+006 1.000223232627e+006 1.000223232627e+006 1.000223232627e+006 1.000223232627e+006 1.000223232627e+006 1.000223232627e+006 1.000223232627e+006 1.000223232627e+006 1.000223232627e+006 1.000000000000e+006 1.000000000000e+006 1.000000000000e+006 1.000000000000e+006 1.000000000000e+006 1.000000000000e+006 1.000000000000e+006 1.000000000000e+006 1.000000000000e+006 
        </DataArray>
        <DataArray type="Float64" Name="MOLAR_FRACTION" format="ascii">