<?xml version="1.0"?>
<VTKFile type="UnstructuredGrid" version="0.1" byte_order="LittleEndian">
  <UnstructuredGrid>
    <Piece NumberOfPoints="909" NumberOfCells="800">
      <Points>
        <DataArray type="Float64" NumberOfComponents="3" format="ascii">
          0.000000000000e+000 0.000000000000e+000 0.000000000000e+000
          2.000000000000e+000 0.000000000000e+000 0.000000000000e+000
          2.000000000000e+000 2.500000000000e+000 0.000000000000e+000
          0.000000000000e+000 2.500000000000e+000 0.000000000000e+000
          2.000000000000e+000 5.000000000000e+000 0.000000000000e+000
          0.000000000000e+000 5.000000000000e+000 0.000000000000e+000
          2.000000000000e+000 7.500000000000e+000 0.000000000000e+000
          0.000000000000e+000 7.500000000000e+000 0.000000000000e+000
          2.000000000000e+000 1.000000000000e+001 0.000000000000e+000
          0.000000000000e+000 1.000000000000e+001 0.000000000000e+000
          2.000000000000e+000 1.250000000000e+001 0.000000000000e+000
          0.000000000000e+000 1.250000000000e+001 0.000000000000e+000
          2.000000000000e+000 1.500000000000e+001 0.000000000000e+000
          0.000000000000e+000 1.500000000000e+001 0.000000000000e+000
          2.000000000000e+000 1.750000000000e+001 0.000000000000e+000
          0.000000000000e+000 1.750000000000e+001 0.000000000000e+000
          2.000000000000e+000 2.000000000000e+001 0.000000000000e+000
          0.000000000000e+000 2.000000000000e+001 0.000000000000e+000
          4.000000000000e+000 0.000000000000e+000 0.000000000000e+000
          4.000000000000e+000 2.500000000000e+000 0.000000000000e+000
          4.000000000000e+000 5.000000000000e+000 0.000000000000e+000
          4.000000000000e+000 7.500000000000e+000 0.000000000000e+000
          4.000000000000e+000 1.000000000000e+001 0.000000000000e+000
          4.000000000000e+000 1.250000000000e+001 0.000000000000e+000
          4.000000000000e+000 1.500000000000e+001 0.000000000000e+000
          4.000000000000e+000 1.750000000000e+001 0.000000000000e+000
          4.000000000000e+000 2.000000000000e+001 0.000000000000e+000
          6.000000000000e+000 0.000000000000e+000 0.000000000000e+000
          6.000000000000e+000 2.500000000000e+000 0.000000000000e+000
          6.000000000000e+000 5.000000000000e+000 0.000000000000e+000
          6.000000000000e+000 7.500000000000e+000 0.000000000000e+000
          6.000000000000e+000 1.000000000000e+001 0.000000000000e+000
          6.000000000000e+000 1.250000000000e+001 0.000000000000e+000
          6.000000000000e+000 1.500000000000e+001 0.000000000000e+000
          6.000000000000e+000 1.750000000000e+001 0.000000000000e+000
          6.000000000000e+000 2.000000000000e+001 0.000000000000e+000
          8.000000000000e+000 0.000000000000e+000 0.000000000000e+000
          8.000000000000e+000 2.500000000000e+000 0.000000000000e+000
          8.000000000000e+000 5.000000000000e+000 0.000000000000e+000
          8.000000000000e+000 7.500000000000e+000 0.000000000000e+000
          8.000000000000e+000 1.000000000000e+001 0.000000000000e+000
          8.000000000000e+000 1.250000000000e+001 0.000000000000e+000
          8.000000000000e+000 1.500000000000e+001 0.000000000000e+000
          8.000000000000e+000 1.750000000000e+001 0.000000000000e+000
          8.000000000000e+000 2.000000000000e+001 0.000000000000e+000
          1.000000000000e+001 0.000000000000e+000 0.000000000000e+000
          1.000000000000e+001 2.500000000000e+000 0.000000000000e+000
          1.000000000000e+001 5.000000000000e+000 0.000000000000e+000
          1.000000000000e+001 7.500000000000e+000 0.000000000000e+000
          1.000000000000e+001 1.000000000000e+001 0.000000000000e+000
          1.000000000000e+001 1.250000000000e+001 0.000000000000e+000
          1.000000000000e+001 1.500000000000e+001 0.000000000000e+000
          1.000000000000e+001 1.750000000000e+001 0.000000000000e+000
          1.000000000000e+001 2.000000000000e+001 0.000000000000e+000
          1.200000000000e+001 0.000000000000e+000 0.000000000000e+000
          1.200000000000e+001 2.500000000000e+000 0.000000000000e+000
          1.200000000000e+001 5.000000000000e+000 0.000000000000e+000
          1.200000000000e+001 7.500000000000e+000 0.000000000000e+000
          1.200000000000e+001 1.000000000000e+001 0.000000000000e+000
          1.200000000000e+001 1.250000000000e+001 0.000000000000e+000
          1.200000000000e+001 1.500000000000e+001 0.000000000000e+000
          1.200000000000e+001 1.750000000000e+001 0.000000000000e+000
          1.200000000000e+001 2.000000000000e+001 0.000000000000e+000
          1.400000000000e+001 0.000000000000e+000 0.000000000000e+000
          1.400000000000e+001 2.500000000000e+000 0.000000000000e+000
          1.400000000000e+001 5.000000000000e+000 0.000000000000e+000
          1.400000000000e+001 7.500000000000e+000 0.000000000000e+000
          1.400000000000e+001 1.000000000000e+001 0.000000000000e+000
          1.400000000000e+001 1.250000000000e+001 0.000000000000e+000
          1.400000000000e+001 1.500000000000e+001 0.000000000000e+000
          1.400000000000e+001 1.750000000000e+001 0.000000000000e+000
          1.400000000000e+001 2.000000000000e+001 0.000000000000e+000
          1.600000000000e+001 0.000000000000e+000 0.000000000000e+000
          1.600000000000e+001 2.500000000000e+000 0.000000000000e+000
          1.600000000000e+001 5.000000000000e+000 0.000000000000e+000
          1.600000000000e+001 7.500000000000e+000 0.000000000000e+000
          1.600000000000e+001 1.000000000000e+001 0.000000000000e+000
          1.600000000000e+001 1.250000000000e+001 0.000000000000e+000
          1.600000000000e+001 1.500000000000e+001 0.000000000000e+000
          1.600000000000e+001 1.750000000000e+001 0.000000000000e+000
          1.600000000000e+001 2.000000000000e+001 0.000000000000e+000
          1.800000000000e+001 0.000000000000e+000 0.000000000000e+000
          1.800000000000e+001 2.500000000000e+000 0.000000000000e+000
          1.800000000000e+001 5.000000000000e+000 0.000000000000e+000
          1.800000000000e+001 7.500000000000e+000 0.000000000000e+000
          1.800000000000e+001 1.000000000000e+001 0.000000000000e+000
          1.800000000000e+001 1.250000000000e+001 0.000000000000e+000
          1.800000000000e+001 1.500000000000e+001 0.000000000000e+000
          1.800000000000e+001 1.750000000000e+001 0.000000000000e+000
          1.800000000000e+001 2.000000000000e+001 0.000000000000e+000
          2.000000000000e+001 0.000000000000e+000 0.000000000000e+000
          2.000000000000e+001 2.500000000000e+000 0.000000000000e+000
          2.000000000000e+001 5.000000000000e+000 0.000000000000e+000
          2.000000000000e+001 7.500000000000e+000 0.000000000000e+000
          2.000000000000e+001 1.000000000000e+001 0.000000000000e+000
          2.000000000000e+001 1.250000000000e+001 0.000000000000e+000
          2.000000000000e+001 1.500000000000e+001 0.000000000000e+000
          2.000000000000e+001 1.750000000000e+001 0.000000000000e+000
          2.000000000000e+001 2.000000000000e+001 0.000000000000e+000
          2.200000000000e+001 0.000000000000e+000 0.000000000000e+000
          2.200000000000e+001 2.500000000000e+000 0.000000000000e+000
          2.200000000000e+001 5.000000000000e+000 0.000000000000e+000
          2.200000000000e+001 7.500000000000e+000 0.000000000000e+000
          2.200000000000e+001 1.000000000000e+001 0.000000000000e+000
          2.200000000000e+001 1.250000000000e+001 0.000000000000e+000
          2.200000000000e+001 1.500000000000e+001 0.000000000000e+000
          2.200000000000e+001 1.750000000000e+001 0.000000000000e+000
          2.200000000000e+001 2.000000000000e+001 0.000000000000e+000
          2.400000000000e+001 0.000000000000e+000 0.000000000000e+000
          2.400000000000e+001 2.500000000000e+000 0.000000000000e+000
          2.400000000000e+001 5.000000000000e+000 0.000000000000e+000
          2.400000000000e+001 7.500000000000e+000 0.000000000000e+000
          2.400000000000e+001 1.000000000000e+001 0.000000000000e+000
          2.400000000000e+001 1.250000000000e+001 0.000000000000e+000
          2.400000000000e+001 1.500000000000e+001 0.000000000000e+000
          2.400000000000e+001 1.750000000000e+001 0.000000000000e+000
          2.400000000000e+001 2.000000000000e+001 0.000000000000e+000
          2.600000000000e+001 0.000000000000e+000 0.000000000000e+000
          2.600000000000e+001 2.500000000000e+000 0.000000000000e+000
          2.600000000000e+001 5.000000000000e+000 0.000000000000e+000
          2.600000000000e+001 7.500000000000e+000 0.000000000000e+000
          2.600000000000e+001 1.000000000000e+001 0.000000000000e+000
          2.600000000000e+001 1.250000000000e+001 0.000000000000e+000
          2.600000000000e+001 1.500000000000e+001 0.000000000000e+000
          2.600000000000e+001 1.750000000000e+001 0.000000000000e+000
          2.600000000000e+001 2.000000000000e+001 0.000000000000e+000
          2.800000000000e+001 0.000000000000e+000 0.000000000000e+000
          2.800000000000e+001 2.500000000000e+000 0.000000000000e+000
          2.800000000000e+001 5.000000000000e+000 0.000000000000e+000
          2.800000000000e+001 7.500000000000e+000 0.000000000000e+000
          2.800000000000e+001 1.000000000000e+001 0.000000000000e+000
          2.800000000000e+001 1.250000000000e+001 0.000000000000e+000
          2.800000000000e+001 1.500000000000e+001 0.000000000000e+000
          2.800000000000e+001 1.750000000000e+001 0.000000000000e+000
          2.800000000000e+001 2.000000000000e+001 0.000000000000e+000
          3.000000000000e+001 0.000000000000e+000 0.000000000000e+000
          3.000000000000e+001 2.500000000000e+000 0.000000000000e+000
          3.000000000000e+001 5.000000000000e+000 0.000000000000e+000
          3.000000000000e+001 7.500000000000e+000 0.000000000000e+000
[...]
      <PointData Scalars="LIQUID_PRESSURE">
        <DataArray type="Float64" Name="LIQUID_PRESSURE" format="ascii">
          1.081834890378e+006 1.081841819822e+006 1.081841819837e+006 1.081834890285e+006 1.081841819865e+006 1.081834890221e+006 1.081841819827e+006 1.081834890317e+006 1.081841819849e+006 1.081834890294e+006 1.081841819894e+006 1.081834890165e+006 1.081841819878e+006 1.081834890151e+006 1.081841819895e+006 1.081834890103e+006 1.081841819927e+006 1.081834890028e+006 1.081800460538e+006 1.081800460580e+006 1.081800460603e+006 1.081800460555e+006 1.081800460565e+006 1.081800460620e+006 1.081800460596e+006 1.081800460617e+006 1.081800460654e+006 1.081705481029e+006 1.081705481058e+006 1.081705481074e+006 1.081705481039e+006 1.081705481047e+006 1.081705481073e+006 1.081705481053e+006 1.081705481058e+006 1.081705481074e+006 1.081646618472e+006 1.081646618487e+006 1.081646618502e+006 1.081646618474e+006 1.081646618474e+006 1.081646618487e+006 1.081646618472e+006 1.081646618467e+006 1.081646618478e+006 1.081504833761e+006 1.081504833773e+006 1.081504833778e+006 1.081504833768e+006 1.081504833760e+006 1.081504833776e+006 1.081504833764e+006 1.081504833759e+006 1.081504833767e+006 1.081345821040e+006 1.081345821047e+006 1.081345821052e+006 1.081345821044e+006 1.081345821044e+006 1.081345821048e+006 1.081345821045e+006 1.081345821044e+006 1.081345821045e+006 1.081201405349e+006 1.081201405350e+006 1.081201405354e+006 1.081201405348e+006 1.081201405352e+006 1.081201405351e+006 1.081201405351e+006 1.081201405350e+006 1.081201405351e+006 1.080966961148e+006 1.080966961146e+006 1.080966961148e+006 1.080966961146e+006 1.080966961147e+006 1.080966961149e+006 1.080966961149e+006 1.080966961151e+006 1.080966961147e+006 1.080759705936e+006 1.080759705935e+006 1.080759705936e+006 1.080759705935e+006 1.080759705935e+006 1.080759705935e+006 1.080759705935e+006 1.080759705935e+006 1.080759705936e+006 1.080503226220e+006 1.080503226223e+006 1.080503226223e+006 1.080503226222e+006 1.080503226223e+006 1.080503226222e+006 1.080503226222e+006 1.080503226222e+006 1.080503226223e+006 1.080210137140e+006 1.080210137143e+006 1.080210137141e+006 1.080210137142e+006 1.080210137139e+006 1.080210137140e+006 1.080210137145e+006 1.080210137141e+006 1.080210137144e+006 1.079920221563e+006 1.079920221562e+006 1.079920221563e+006 1.079920221562e+006 1.079920221562e+006 1.079920221564e+006 1.079920221561e+006 1.079920221562e+006 1.079920221562e+006 1.079566675924e+006 1.079566675923e+006 1.079566675925e+006 1.079566675925e+006 1.079566675926e+006 1.079566675925e+006 1.079566675924e+006 1.079566675924e+006 1.079566675924e+006 1.079227900173e+006 1.079227900176e+006 1.079227900173e+006 1.079227900176e+006 1.079227900174e+006 1.079227900175e+006 1.079227900176e+006 1.079227900176e+006 1.079227900174e+006 1.078832428954e+006 1.078832428953e+006 1.078832428955e+006 1.078832428952e+006 1.078832428955e+006 1.078832428952e+006 1.078832428954e+006 1.078832428952e+006 1.078832428953e+006 1.078426107801e+006 1.078426107798e+006 1.078426107798e+006 1.078426107799e+006 1.078426107797e+006 1.078426107800e+006 1.078426107798e+006 1.078426107799e+006 1.078426107797e+006 1.077999403473e+006 1.077999403474e+006 1.077999403473e+006 1.077999403474e+006 1.077999403473e+006 1.077999403473e+006 1.077999403474e+006 1.077999403475e+006 1.077999403473e+006 1.077517681849e+006 1.077517681850e+006 1.077517681849e+006 1.077517681849e+006 1.077517681850e+006 1.077517681850e+006 1.077517681850e+006 1.077517681849e+006 1.077517681851e+006 1.077056821945e+006 1.077056821945e+006 1.077056821944e+006 1.077056821945e+006 1.077056821945e+006 1.077056821944e+006 1.077056821945e+006 1.077056821944e+006 1.077056821946e+006 1.076528915300e+006 1.076528915299e+006 1.076528915301e+006 1.076528915300e+006 1.076528915300e+006 1.076528915301e+006 1.076528915300e+006 1.076528915300e+006 1.076528915299e+006 1.076002602687e+006 1.076002602686e+006 1.076002602687e+006 1.076002602686e+006 1.076002602686e+006 1.076002602685e+006 1.076002602686e+006 1.076002602687e+006 1.076002602685e+006 1.075442957373e+006 1.075442957372e+006 1.075442957373e+006 1.075442957374e+006 1.075442957373e+006 1.075442957374e+006 1.075442957374e+006 1.075442957373e+006 1.075442957374e+006 1.074857625965e+006 1.074857625965e+006 1.074857625965e+006 1.074857625965e+006 1.074857625964e+006 1.074857625965e+006 1.074857625965e+006 1.074857625965e+006 1.074857625965e+006 1.074259189872e+006 1.074259189871e+006 1.074259189872e+006 1.074259189871e+006 1.074259189872e+006 1.074259189871e+006 1.074259189872e+006 1.074259189871e+006 1.074259189871e+006 1.073612613082e+006 1.073612613082e+006 1.073612613082e+006 1.073612613083e+006 1.073612613082e+006 1.073612613082e+006 1.073612613082e+006 1.073612613082e+006 1.073612613082e+006 1.072972080230e+006 1.072972080230e+006 1.072972080230e+006 1.072972080230e+006 1.072972080230e+006 1.072972080230e+006 1.072972080230e+006 1.072972080230e+006 1.072972080229e+006 1.072287278589e+006 1.072287278589e+006 1.072287278590e+006 1.072287278590e+006 1.072287278590e+006 1.072287278589e+006 1.072287278589e+006 1.072287278590e+006 1.072287278590e+006 1.071582267849e+006 1.071582267850e+006 1.071582267849e+006 1.071582267849e+006 1.071582267849e+006 1.071582267849e+006 1.071582267849e+006 1.071582267849e+006 1.071582267849e+006 1.070875150127e+006 1.070875150127e+006 1.070875150128e+006 1.070875150128e+006 1.070875150128e+006 1.070875150127e+006 1.070875150127e+006 1.070875150127e+006 1.070875150127e+006 1.070109916249e+006 1.070109916249e+006 1.070109916249e+006 1.070109916248e+006 1.070109916249e+006 1.070109916249e+006 1.070109916249e+006 1.070109916249e+006 1.070109916249e+006 1.069353183779e+006 1.069353183779e+006 1.069353183779e+006 1.069353183779e+006 1.069353183779e+006 1.069353183779e+006 1.069353183779e+006 1.069353183779e+006 1.069353183779e+006 1.068564724331e+006 1.068564724331e+006 1.068564724331e+006 1.068564724331e+006 1.068564724331e+006 1.068564724331e+006 1.068564724331e+006 1.068564724331e+006 1.068564724331e+006 1.067737515524e+006 1.067737515524e+006 1.067737515524e+006 1.067737515524e+006 1.067737515524e+006 1.067737515525e+006 1.067737515525e+006 1.067737515525e+006 1.067737515524e+006 1.066922640067e+006 1.066922640067e+006 1.066922640067e+006 1.066922640066e+006 1.066922640067e+006 1.066922640067e+006 1.066922640067e+006 1.066922640066e+006 1.066922640067e+006 1.066057011520e+006 1.066057011520e+006 1.066057011520e+006 1.066057011520e+006 1.066057011520e+006 1.066057011520e+006 1.066057011520e+006 1.066057011520e+006 1.066057011520e+006 1.065179801852e+006 1.065179801852e+006 1.065179801852e+006 1.065179801852e+006 1.065179801852e+006 1.065179801852e+006 1.065179801852e+006 1.065179801852e+006 1.065179801852e+006 1.064294532240e+006 1.064294532240e+006 1.064294532240e+006 1.064294532239e+006 1.064294532240e+006 1.064294532240e+006 1.064294532240e+006 1.064294532240e+006 1.064294532240e+006 1.063368522252e+006 1.063368522252e+006 1.063368522252e+006 1.063368522252e+006 1.063368522252e+006 1.063368522252e+006 1.063368522252e+006 1.063368522252e+006 1.063368522252e+006 1.062434911621e+006 1.062434911621e+006 1.062434911621e+006 1.062434911621e+006 1.062434911621e+006 1.062434911621e+006 1.062434911621e+006 1.062434911621e+006 1.062434911621e+006 1.061492749381e+006 1.061492749381e+006 1.061492749381e+006 1.061492749382e+006 1.061492749381e+006 1.061492749382e+006 1.061492749382e+006 1.061492749381e+006 1.061492749382e+006 1.060500036841e+006 1.060500036841e+006 1.060500036841e+006 1.060500036841e+006 1.060500036841e+006 1.060500036841e+006 1.060500036841e+006 1.060500036841e+006 1.060500036841e+006 1.059512573524e+006 1.059512573524e+006 1.059512573524e+006 1.059512573524e+006 1.059512573524e+006 1.059512573524e+006 1.059512573524e+006 1.059512573524e+006 1.059512573524e+006 1.058505317949e+006 1.058505317948e+006 1.058505317948e+006 1.058505317948e+006 1.058505317948e+006 1.058505317948e+006 1.058505317949e+006 1.058505317949e+006 1.058505317948e+006 1.057476788105e+006 1.057476788106e+006 1.057476788105e+006 1.057476788105e+006 1.057476788106e+006 1.057476788106e+006 1.057476788106e+006 1.057476788105e+006 1.057476788105e+006 1.056439554252e+006 1.056439554252e+006 1.056439554252e+006 1.056439554252e+006 1.056439554252e+006 1.056439554252e+006 1.056439554251e+006 1.056439554252e+006 1.056439554252e+006 1.055358871593e+006 1.055358871593e+006 1.055358871593e+006 1.055358871592e+006 1.055358871592e+006 1.055358871592e+006 1.055358871592e+006 1.055358871592e+006 1.055358871592e+006 1.054270480451e+006 1.054270480451e+006 1.054270480451e+006 1.054270480451e+006 1.054270480451e+006 1.054270480451e+006 1.054270480451e+006 1.054270480451e+006 1.054270480451e+006 1.053208398965e+006 1.053208398965e+006 1.053208398965e+006 1.053208398965e+006 1.053208398965e+006 1.053208398965e+006 1.053208398965e+006 1.053208398965e+006 1.053208398965e+006 1.052087049918e+006 1.052087049918e+006 1.052087049918e+006 1.052087049918e+006 1.052087049918e+006 1.052087049918e+006 1.052087049918e+006 1.052087049918e+006 1.052087049918e+006 1.050956588587e+006 1.050956588587e+006 1.050956588587e+006 1.050956588587e+006 1.050956588587e+006 1.050956588587e+006 1.050956588587e+006 1.050956588587e+006 1.050956588587e+006 1.049809963041e+006 1.049809963040e+006 1.049809963040e+006 1.049809963041e+006 1.049809963041e+006 1.049809963040e+006 1.049809963040e+006 1.049809963040e+006 1.049809963040e+006 1.048642228610e+006 1.048642228610e+006 1.048642228610e+006 1.048642228610e+006 1.048642228610e+006 1.048642228610e+006 1.048642228610e+006 1.048642228610e+006 1.048642228610e+006 1.047489055617e+006 1.047489055617e+006 1.047489055617e+006 1.047489055617e+006 1.047489055617e+006 1.047489055617e+006 1.047489055617e+006 1.047489055617e+006 1.047489055617e+006 1.046324364400e+006 1.046324364399e+006 1.046324364399e+006 1.046324364399e+006 1.046324364399e+006 1.046324364399e+006 1.046324364399e+006 1.046324364399e+006 1.046324364399e+006 1.045127594810e+006 1.045127594811e+006 1.045127594811e+006 1.045127594811e+006 1.045127594811e+006 1.045127594811e+006 1.045127594810e+006 1.045127594810e+006 1.045127594810e+006 1.043914103057e+006 1.043914103058e+006 1.043914103057e+006 1.043914103057e+006 1.043914103058e+006 1.043914103057e+006 1.043914103057e+006 1.043914103057e+006 1.043914103058e+006 1.042712488833e+006 1.042712488834e+006 1.042712488833e+006 1.042712488834e+006 1.042712488834e+006 1.042712488833e+006 1.042712488834e+006 1.042712488833e+006 1.042712488833e+006 1.041470866033e+006 1.041470866032e+006 1.041470866034e+006 1.041470866034e+006 1.041470866033e+006 1.041470866033e+006 1.041470866034e+006 1.041470866034e+006 1.041470866034e+006 1.040188363857e+006 1.040188363857e+006 1.040188363857e+006 1.040188363858e+006 1.040188363856e+006 1.040188363857e+006 1.040188363857e+006 1.040188363857e+006 1.040188363857e+006 1.039003383218e+006 1.039003383218e+006 1.039003383218e+006 1.039003383216e+006 1.039003383216e+006 1.039003383215e+006 1.039003383215e+006 1.039003383215e+006 1.039003383214e+006 1.037807663939e+006 1.037807663939e+006 1.037807663939e+006 1.037807663941e+006 1.037807663942e+006 1.037807663943e+006 1.037807663943e+006 1.037807663944e+006 1.037807663944e+006 1.036491808912e+006 1.036491808912e+006 1.036491808914e+006 1.036491808915e+006 1.036491808917e+006 1.036491808919e+006 1.036491808919e+006 1.036491808920e+006 1.036491808919e+006 1.035162142930e+006 1.035162142930e+006 1.035162142926e+006 1.035162142917e+006 1.035162142909e+006 1.035162142906e+006 1.035162142903e+006 1.035162142902e+006 1.035162142902e+006 1.034056078951e+006 1.034056078950e+006 1.034056078953e+006 1.034056078973e+006 1.034056078984e+006 1.034056078988e+006 1.034056078992e+006 1.034056078994e+006 1.034056078994e+006 1.032596793689e+006 1.032596793690e+006 1.032596793691e+006 1.032596793666e+006 1.032596793659e+006 1.032596793654e+006 1.032596793650e+006 1.032596793648e+006 1.032596793647e+006 1.031521745217e+006 1.031521745220e+006 1.031521745215e+006 1.031521745225e+006 1.031521745222e+006 1.031521745225e+006 1.031521745226e+006 1.031521745226e+006 1.031521745226e+006 1.030098700130e+006 1.030098700130e+006 1.030098700125e+006 1.030098700141e+006 1.030098700139e+006 1.030098700141e+006 1.030098700143e+006 1.030098700142e+006 1.030098700144e+006 1.028826946611e+006 1.028826946610e+006 1.028826946605e+006 1.028826946613e+006 1.028826946610e+006 1.028826946610e+006 1.028826946612e+006 1.028826946611e+006 1.028826946611e+006 1.027622073813e+006 1.027622073811e+006 1.027622073808e+006 1.027622073811e+006 1.027622073809e+006 1.027622073807e+006 1.027622073808e+006 1.027622073808e+006 1.027622073808e+006 1.026364565774e+006 1.026364565772e+006 1.026364565771e+006 1.026364565771e+006 1.026364565770e+006 1.026364565769e+006 1.026364565770e+006 1.026364565769e+006 1.026364565768e+006 1.025134568033e+006 1.025134568032e+006 1.025134568031e+006 1.025134568032e+006 1.025134568032e+006 1.025134568031e+006 1.025134568032e+006 1.025134568031e+006 1.025134568031e+006 1.023854179857e+006 1.023854179856e+006 1.023854179856e+006 1.023854179857e+006 1.023854179856e+006 1.023854179856e+006 1.023854179857e+006 1.023854179856e+006 1.023854179856e+006 1.022609377295e+006 1.022609377295e+006 1.022609377296e+006 1.022609377297e+006 1.022609377297e+006 1.022609377296e+006 1.022609377296e+006 1.022609377296e+006 1.022609377296e+006 1.021433097335e+006 1.021433097335e+006 1.021433097335e+006 1.021433097336e+006 1.021433097336e+006 1.021433097335e+006 1.021433097335e+006 1.021433097336e+006 1.021433097336e+006 1.020230763422e+006 1.020230763421e+006 1.020230763421e+006 1.020230763421e+006 1.020230763422e+006 1.020230763421e+006 1.020230763421e+006 1.020230763421e+006 1.020230763422e+006 1.019116277011e+006 1.019116277011e+006 1.019116277011e+006 1.019116277010e+006 1.019116277010e+006 1.019116277011e+006 1.019116277011e+006 1.019116277011e+006 1.019116277009e+006 1.018107739537e+006 1.018107739537e+006 1.018107739537e+006 1.018107739537e+006 1.018107739536e+006 1.018107739537e+006 1.018107739537e+006 1.018107739537e+006 1.018107739536e+006 1.017269628981e+006 1.017269628981e+006 1.017269628981e+006 1.017269628981e+006 1.017269628981e+006 1.017269628981e+006 1.017269628981e+006 1.017269628981e+006 1.017269628981e+006 1.016484545425e+006 1.016484545424e+006 1.016484545424e+006 1.016484545424e+006 1.016484545424e+006 1.016484545424e+006 1.016484545424e+006 1.016484545424e+006 1.016484545424e+006 1.015699476146e+006 1.015699476146e+006 1.015699476146e+006 1.015699476146e+006 1.015699476146e+006 1.015699476146e+006 1.015699476146e+006 1.015699476146e+006 1.015699476146e+006 1.014914419923e+006 1.014914419923e+006 1.014914419923e+006 1.014914419923e+006 1.014914419923e+006 1.014914419923e+006 1.014914419923e+006 1.014914419923e+006 1.014914419923e+006 1.014129376173e+006 1.014129376173e+006 1.014129376173e+006 1.014129376173e+006 1.014129376174e+006 1.014129376173e+006 1.014129376173e+006 1.014129376173e+006 1.014129376173e+006 1.013344344381e+006 1.013344344381e+006 1.013344344381e+006 1.013344344381e+006 1.013344344382e+006 1.013344344382e+006 1.013344344381e+006 1.013344344381e+006 1.013344344381e+006 1.012559323976e+006 1.012559323976e+006 1.012559323976e+006 1.012559323976e+006 1.012559323976e+006 1.012559323976e+006 1.012559323976e+006 1.012559323976e+006 1.012559323976e+006 1.011774314337e+006 1.011774314337e+006 1.011774314336e+006 1.011774314336e+006 1.011774314336e+006 1.011774314336e+006 1.011774314336e+006 1.011774314336e+006 1.011774314336e+006 1.010989314817e+006 1.010989314818e+006 1.010989314817e+006 1.010989314817e+006 1.010989314817e+006 1.010989314817e+006 1.010989314817e+006 1.010989314817e+006 1.010989314817e+006 1.010204324760e+006 1.010204324760e+006 1.010204324760e+006 1.010204324759e+006 1.010204324759e+006 1.010204324759e+006 1.010204324759e+006 1.010204324759e+006 1.010204324759e+006 1.009419343496e+006 1.009419343497e+006 1.009419343497e+006 1.009419343497e+006 1.009419343496e+006 1.009419343496e+006 1.009419343496e+006 1.009419343496e+006 1.009419343496e+006 1.008634370352e+006 1.008634370353e+006 1.008634370352e+006 1.008634370352e+006 1.008634370352e+006 1.008634370352e+006 1.008634370352e+006 1.008634370352e+006 1.008634370352e+006 1.007849404642e+006 1.007849404642e+006 1.007849404642e+006 1.007849404642e+006 1.007849404642e+006 1.007849404642e+006 1.007849404642e+006 1.007849404642e+006 1.007849404642e+006 1.007064445672e+006 1.007064445672e+006 1.007064445672e+006 1.007064445671e+006 1.007064445672e+006 1.007064445672e+006 1.007064445672e+006 1.007064445671e+006 1.007064445672e+006 1.006279492737e+006 1.006279492737e+006 1.006279492737e+006 1.006279492737e+006 1.006279492737e+006 1.006279492737e+006 1.006279492737e+006 1.006279492737e+006 1.006279492737e+006 1.005494545128e+006 1.005494545128e+006 1.005494545128e+006 1.005494545128e+006 1.005494545128e+006 1.005494545128e+006 1.005494545128e+006 1.005494545128e+006 1.005494545128e+006 1.004709602125e+006 1.004709602125e+006 1.004709602125e+006 1.004709602125e+006 1.004709602125e+006 1.004709602125e+006 1.004709602125e+006 1.004709602125e+006 1.004709602125e+006 1.003924663004e+006 1.003924663004e+006 1.003924663004e+006 1.003924663004e+006 1.003924663004e+006 1.003924663004e+006 1.003924663004e+006 1.003924663005e+006 1.003924663004e+006 1.003139727037e+006 1.003139727037e+006 1.003139727037e+006 1.003139727037e+006 1.003139727037e+006 1.003139727037e+006 1.003139727037e+006 1.003139727037e+006 1.003139727037e+006 1.002354793490e+006 1.002354793490e+006 1.002354793490e+006 1.002354793490e+006 1.002354793490e+006 1.002354793490e+006 1.002354793490e+006 1.002354793490e+006 1.002354793490e+006 1.001569861628e+006 1.001569861628e+006 1.001569861628e+006 1.001569861628e+006 1.001569861628e+006 1.001569861628e+006 1.001569861628e+006 1.001569861628e+006 1.001569861628e+006 1.000784930711e+006 1.000784930711e+006 1.000784930711e+006 1.000784930711e+006 1.000784930711e+006 1.000784930711e+006 1.000784930711e+006 1.000784930711e+006 1.000784930711e+006 1.000000000000e+006 1.000000000000e+006 1.000000000000e+006 1.000000000000e+006 1.000000000000e+006 1.000000000000e+006 1.000000000000e+006 1.000000000000e+006 1.000000000000e+006 
        </DataArray>
        <DataArray type="Float64" Name="MOLAR_FRACTION" format="ascii">