<?xml version="1.0"?>
<VTKFile type="UnstructuredGrid" version="0.1" byte_order="LittleEndian">
  <UnstructuredGrid>
    <Piece NumberOfPoints="909" NumberOfCells="800">
      <Points>
        <DataArray type="Float64" NumberOfComponents="3" format="ascii">
          0.000000000000e+000 0.000000000000e+000 0.000000000000e+000
          2.000000000000e+000 0.000000000000e+000 0.000000000000e+000
          2.000000000000e+000 2.500000000000e+000 0.000000000000e+000
          0.000000000000e+000 2.500000000000e+000 0.000000000000e+000
          2.000000000000e+000 5.000000000000e+000 0.000000000000e+000
          0.000000000000e+000 5.000000000000e+000 0.000000000000e+000
          2.000000000000e+000 7.500000000000e+000 0.000000000000e+000
          0.000000000000e+000 7.500000000000e+000 0.000000000000e+000
          2.000000000000e+000 1.000000000000e+001 0.000000000000e+000
          0.000000000000e+000 1.000000000000e+001 0.000000000000e+000
          2.000000000000e+000 1.250000000000e+001 0.000000000000e+000
          0.000000000000e+000 1.250000000000e+001 0.000000000000e+000
          2.000000000000e+000 1.500000000000e+001 0.000000000000e+000
          0.000000000000e+000 1.500000000000e+001 0.000000000000e+000
          2.000000000000e+000 1.750000000000e+001 0.000000000000e+000
          0.000000000000e+000 1.750000000000e+001 0.000000000000e+000
          2.000000000000e+000 2.000000000000e+001 0.000000000000e+000
          0.000000000000e+000 2.000000000000e+001 0.000000000000e+000
          4.000000000000e+000 0.000000000000e+000 0.000000000000e+000
          4.000000000000e+000 2.500000000000e+000 0.000000000000e+000
          4.000000000000e+000 5.000000000000e+000 0.000000000000e+000
          4.000000000000e+000 7.500000000000e+000 0.000000000000e+000
          4.000000000000e+000 1.000000000000e+001 0.000000000000e+000
          4.000000000000e+000 1.250000000000e+001 0.000000000000e+000
          4.000000000000e+000 1.500000000000e+001 0.000000000000e+000
          4.000000000000e+000 1.750000000000e+001 0.000000000000e+000
          4.000000000000e+000 2.000000000000e+001 0.000000000000e+000
          6.000000000000e+000 0.000000000000e+000 0.000000000000e+000
          6.000000000000e+000 2.500000000000e+000 0.000000000000e+000
          6.000000000000e+000 5.000000000000e+000 0.000000000000e+000
          6.000000000000e+000 7.500000000000e+000 0.000000000000e+000
          6.000000000000e+000 1.000000000000e+001 0.000000000000e+000
          6.000000000000e+000 1.250000000000e+001 0.000000000000e+000
          6.000000000000e+000 1.500000000000e+001 0.000000000000e+000
          6.000000000000e+000 1.750000000000e+001 0.000000000000e+000
          6.000000000000e+000 2.000000000000e+001 0.000000000000e+000
          8.000000000000e+000 0.000000000000e+000 0.000000000000e+000
          8.000000000000e+000 2.500000000000e+000 0.000000000000e+000
          8.000000000000e+000 5.000000000000e+000 0.000000000000e+000
          8.000000000000e+000 7.500000000000e+000 0.000000000000e+000
          8.000000000000e+000 1.000000000000e+001 0.000000000000e+000
          8.000000000000e+000 1.250000000000e+001 0.000000000000e+000
          8.000000000000e+000 1.500000000000e+001 0.000000000000e+000
          8.000000000000e+000 1.750000000000e+001 0.000000000000e+000
          8.000000000000e+000 2.000000000000e+001 0.000000000000e+000
          1.000000000000e+001 0.000000000000e+000 0.000000000000e+000
          1.000000000000e+001 2.500000000000e+000 0.000000000000e+000
          1.000000000000e+001 5.000000000000e+000 0.000000000000e+000
          1.000000000000e+001 7.500000000000e+000 0.000000000000e+000
          1.000000000000e+001 1.000000000000e+001 0.000000000000e+000
          1.000000000000e+001 1.250000000000e+001 0.000000000000e+000
          1.000000000000e+001 1.500000000000e+001 0.000000000000e+000
          1.000000000000e+001 1.750000000000e+001 0.000000000000e+000
          1.000000000000e+001 2.000000000000e+001 0.000000000000e+000
          1.200000000000e+001 0.000000000000e+000 0.000000000000e+000
          1.200000000000e+001 2.500000000000e+000 0.000000000000e+000
          1.200000000000e+001 5.000000000000e+000 0.000000000000e+000
          1.200000000000e+001 7.500000000000e+000 0.000000000000e+000
          1.200000000000e+001 1.000000000000e+001 0.000000000000e+000
          1.200000000000e+001 1.250000000000e+001 0.000000000000e+000
          1.200000000000e+001 1.500000000000e+001 0.000000000000e+000
          1.200000000000e+001 1.750000000000e+001 0.000000000000e+000
          1.200000000000e+001 2.000000000000e+001 0.000000000000e+000
          1.400000000000e+001 0.000000000000e+000 0.000000000000e+000
          1.400000000000e+001 2.500000000000e+000 0.000000000000e+000
          1.400000000000e+001 5.000000000000e+000 0.000000000000e+000
          1.400000000000e+001 7.500000000000e+000 0.000000000000e+000
          1.400000000000e+001 1.000000000000e+001 0.000000000000e+000
          1.400000000000e+001 1.250000000000e+001 0.000000000000e+000
          1.400000000000e+001 1.500000000000e+001 0.000000000000e+000
          1.400000000000e+001 1.750000000000e+001 0.000000000000e+000
          1.400000000000e+001 2.000000000000e+001 0.000000000000e+000
          1.600000000000e+001 0.000000000000e+000 0.000000000000e+000
          1.600000000000e+001 2.500000000000e+000 0.000000000000e+000
          1.600000000000e+001 5.000000000000e+000 0.000000000000e+000
          1.600000000000e+001 7.500000000000e+000 0.000000000000e+000
          1.600000000000e+001 1.000000000000e+001 0.000000000000e+000
          1.600000000000e+001 1.250000000000e+001 0.000000000000e+000
          1.600000000000e+001 1.500000000000e+001 0.000000000000e+000
          1.600000000000e+001 1.750000000000e+001 0.000000000000e+000
          1.600000000000e+001 2.000000000000e+001 0.000000000000e+000
          1.800000000000e+001 0.000000000000e+000 0.000000000000e+000
          1.800000000000e+001 2.500000000000e+000 0.000000000000e+000
          1.800000000000e+001 5.000000000000e+000 0.000000000000e+000
          1.800000000000e+001 7.500000000000e+000 0.000000000000e+000
          1.800000000000e+001 1.000000000000e+001 0.000000000000e+000
          1.800000000000e+001 1.250000000000e+001 0.000000000000e+000
          1.800000000000e+001 1.500000000000e+001 0.000000000000e+000
          1.800000000000e+001 1.750000000000e+001 0.000000000000e+000
          1.800000000000e+001 2.000000000000e+001 0.000000000000e+000
          2.000000000000e+001 0.000000000000e+000 0.000000000000e+000
          2.000000000000e+001 2.500000000000e+000 0.000000000000e+000
          2.000000000000e+001 5.000000000000e+000 0.000000000000e+000
          2.000000000000e+001 7.500000000000e+000 0.000000000000e+000
          2.000000000000e+001 1.000000000000e+001 0.000000000000e+000
          2.000000000000e+001 1.250000000000e+001 0.000000000000e+000
          2.000000000000e+001 1.500000000000e+001 0.000000000000e+000
          2.000000000000e+001 1.750000000000e+001 0.000000000000e+000
          2.000000000000e+001 2.000000000000e+001 0.000000000000e+000
          2.200000000000e+001 0.000000000000e+000 0.000000000000e+000
          2.200000000000e+001 2.500000000000e+000 0.000000000000e+000
          2.200000000000e+001 5.000000000000e+000 0.000000000000e+000
          2.200000000000e+001 7.500000000000e+000 0.000000000000e+000
          2.200000000000e+001 1.000000000000e+001 0.000000000000e+000
          2.200000000000e+001 1.250000000000e+001 0.000000000000e+000
          2.200000000000e+001 1.500000000000e+001 0.000000000000e+000
          2.200000000000e+001 1.750000000000e+001 0.000000000000e+000
          2.200000000000e+001 2.000000000000e+001 0.000000000000e+000
          2.400000000000e+001 0.000000000000e+000 0.000000000000e+000
          2.400000000000e+001 2.500000000000e+000 0.000000000000e+000
          2.400000000000e+001 5.000000000000e+000 0.000000000000e+000
          2.400000000000e+001 7.500000000000e+000 0.000000000000e+000
          2.400000000000e+001 1.000000000000e+001 0.000000000000e+000
          2.400000000000e+001 1.250000000000e+001 0.000000000000e+000
          2.400000000000e+001 1.500000000000e+001 0.000000000000e+000
          2.400000000000e+001 1.750000000000e+001 0.000000000000e+000
          2.400000000000e+001 2.000000000000e+001 0.000000000000e+000
          2.600000000000e+001 0.000000000000e+000 0.000000000000e+000
          2.600000000000e+001 2.500000000000e+000 0.000000000000e+000
          2.600000000000e+001 5.000000000000e+000 0.000000000000e+000
          2.600000000000e+001 7.500000000000e+000 0.000000000000e+000
          2.600000000000e+001 1.000000000000e+001 0.000000000000e+000
          2.600000000000e+001 1.250000000000e+001 0.000000000000e+000
          2.600000000000e+001 1.500000000000e+001 0.000000000000e+000
          2.600000000000e+001 1.750000000000e+001 0.000000000000e+000
          2.600000000000e+001 2.000000000000e+001 0.000000000000e+000
          2.800000000000e+001 0.000000000000e+000 0.000000000000e+000
          2.800000000000e+001 2.500000000000e+000 0.000000000000e+000
          2.800000000000e+001 5.000000000000e+000 0.000000000000e+000
          2.800000000000e+001 7.500000000000e+000 0.000000000000e+000
          2.800000000000e+001 1.000000000000e+001 0.000000000000e+000
          2.800000000000e+001 1.250000000000e+001 0.000000000000e+000
          2.800000000000e+001 1.500000000000e+001 0.000000000000e+000
          2.800000000000e+001 1.750000000000e+001 0.000000000000e+000
          2.800000000000e+001 2.000000000000e+001 0.000000000000e+000
          3.000000000000e+001 0.000000000000e+000 0.000000000000e+000
          3.000000000000e+001 2.500000000000e+000 0.000000000000e+000
          3.000000000000e+001 5.000000000000e+000 0.000000000000e+000
          3.000000000000e+001 7.500000000000e+000 0.000000000000e+000
[...]
      <PointData Scalars="LIQUID_PRESSURE">
        <DataArray type="Float64" Name="LIQUID_PRESSURE" format="ascii">
          1.089620801412e+006 1.089627406258e+006 1.089627406273e+006 1.089620801316e+006 1.089627406301e+006 1.089620801252e+006 1.089627406263e+006 1.089620801349e+006 1.089627406285e+006 1.089620801325e+006 1.089627406331e+006 1.089620801194e+006 1.089627406314e+006 1.089620801177e+006 1.089627406331e+006 1.089620801127e+006 1.089627406364e+006 1.089620801050e+006 1.089583024548e+006 1.089583024591e+006 1.089583024615e+006 1.089583024566e+006 1.089583024576e+006 1.089583024633e+006 1.089583024609e+006 1.089583024631e+006 1.089583024669e+006 1.089483288947e+006 1.089483288978e+006 1.089483288994e+006 1.089483288959e+006 1.089483288967e+006 1.089483288994e+006 1.089483288974e+006 1.089483288979e+006 1.089483288997e+006 1.089418755914e+006 1.089418755930e+006 1.089418755946e+006 1.089418755917e+006 1.089418755916e+006 1.089418755930e+006 1.089418755916e+006 1.089418755910e+006 1.089418755922e+006 1.089268334278e+006 1.089268334291e+006 1.089268334296e+006 1.089268334286e+006 1.089268334277e+006 1.089268334293e+006 1.089268334281e+006 1.089268334276e+006 1.089268334284e+006 1.089099504053e+006 1.089099504061e+006 1.089099504066e+006 1.089099504058e+006 1.089099504057e+006 1.089099504062e+006 1.089099504058e+006 1.089099504057e+006 1.089099504058e+006 1.088943746695e+006 1.088943746697e+006 1.088943746701e+006 1.088943746695e+006 1.088943746699e+006 1.088943746698e+006 1.088943746698e+006 1.088943746696e+006 1.088943746697e+006 1.088695503482e+006 1.088695503480e+006 1.088695503483e+006 1.088695503480e+006 1.088695503482e+006 1.088695503483e+006 1.088695503483e+006 1.088695503486e+006 1.088695503481e+006 1.088473333602e+006 1.088473333601e+006 1.088473333602e+006 1.088473333601e+006 1.088473333601e+006 1.088473333600e+006 1.088473333601e+006 1.088473333600e+006 1.088473333602e+006 1.088199589821e+006 1.088199589824e+006 1.088199589824e+006 1.088199589823e+006 1.088199589824e+006 1.088199589823e+006 1.088199589823e+006 1.088199589823e+006 1.088199589824e+006 1.087887414436e+006 1.087887414439e+006 1.087887414437e+006 1.087887414438e+006 1.087887414435e+006 1.087887414436e+006 1.087887414441e+006 1.087887414438e+006 1.087887414440e+006 1.087576621726e+006 1.087576621725e+006 1.087576621726e+006 1.087576621725e+006 1.087576621724e+006 1.087576621727e+006 1.087576621724e+006 1.087576621725e+006 1.087576621725e+006 1.087200362095e+006 1.087200362094e+006 1.087200362096e+006 1.087200362096e+006 1.087200362097e+006 1.087200362095e+006 1.087200362094e+006 1.087200362094e+006 1.087200362094e+006 1.086837464677e+006 1.086837464681e+006 1.086837464678e+006 1.086837464680e+006 1.086837464679e+006 1.086837464679e+006 1.086837464680e+006 1.086837464681e+006 1.086837464678e+006 1.086415605764e+006 1.086415605763e+006 1.086415605765e+006 1.086415605763e+006 1.086415605765e+006 1.086415605763e+006 1.086415605764e+006 1.086415605763e+006 1.086415605764e+006 1.085981425440e+006 1.085981425437e+006 1.085981425437e+006 1.085981425438e+006 1.085981425435e+006 1.085981425439e+006 1.085981425437e+006 1.085981425438e+006 1.085981425436e+006 1.085524383631e+006 1.085524383632e+006 1.085524383631e+006 1.085524383632e+006 1.085524383631e+006 1.085524383631e+006 1.085524383632e+006 1.085524383632e+006 1.085524383631e+006 1.085010608838e+006 1.085010608838e+006 1.085010608837e+006 1.085010608837e+006 1.085010608838e+006 1.085010608839e+006 1.085010608838e+006 1.085010608837e+006 1.085010608839e+006 1.084516040233e+006 1.084516040233e+006 1.084516040232e+006 1.084516040232e+006 1.084516040233e+006 1.084516040232e+006 1.084516040233e+006 1.084516040232e+006 1.084516040234e+006 1.083952302007e+006 1.083952302006e+006 1.083952302007e+006 1.083952302006e+006 1.083952302007e+006 1.083952302008e+006 1.083952302006e+006 1.083952302007e+006 1.083952302006e+006 1.083388488218e+006 1.083388488218e+006 1.083388488219e+006 1.083388488217e+006 1.083388488218e+006 1.083388488217e+006 1.083388488217e+006 1.083388488218e+006 1.083388488216e+006 1.082789325488e+006 1.082789325487e+006 1.082789325488e+006 1.082789325489e+006 1.082789325488e+006 1.082789325489e+006 1.082789325488e+006 1.082789325488e+006 1.082789325489e+006 1.082162781230e+006 1.082162781230e+006 1.082162781230e+006 1.082162781230e+006 1.082162781229e+006 1.082162781230e+006 1.082162781230e+006 1.082162781230e+006 1.082162781230e+006 1.081520699426e+006 1.081520699425e+006 1.081520699426e+006 1.081520699425e+006 1.081520699426e+006 1.081520699425e+006 1.081520699426e+006 1.081520699425e+006 1.081520699425e+006 1.080828508184e+006 1.080828508184e+006 1.080828508184e+006 1.080828508185e+006 1.080828508184e+006 1.080828508184e+006 1.080828508184e+006 1.080828508184e+006 1.080828508183e+006 1.080140764171e+006 1.080140764170e+006 1.080140764170e+006 1.080140764171e+006 1.080140764171e+006 1.080140764170e+006 1.080140764170e+006 1.080140764171e+006 1.080140764170e+006 1.079406239573e+006 1.079406239574e+006 1.079406239574e+006 1.079406239574e+006 1.079406239574e+006 1.079406239574e+006 1.079406239574e+006 1.079406239575e+006 1.079406239575e+006 1.078650254339e+006 1.078650254340e+006 1.078650254338e+006 1.078650254339e+006 1.078650254338e+006 1.078650254339e+006 1.078650254339e+006 1.078650254338e+006 1.078650254339e+006 1.077889842451e+006 1.077889842450e+006 1.077889842451e+006 1.077889842451e+006 1.077889842451e+006 1.077889842451e+006 1.077889842451e+006 1.077889842451e+006 1.077889842451e+006 1.077068959568e+006 1.077068959568e+006 1.077068959568e+006 1.077068959568e+006 1.077068959568e+006 1.077068959568e+006 1.077068959568e+006 1.077068959568e+006 1.077068959568e+006 1.076255179224e+006 1.076255179224e+006 1.076255179224e+006 1.076255179224e+006 1.076255179223e+006 1.076255179224e+006 1.076255179224e+006 1.076255179224e+006 1.076255179224e+006 1.075406797780e+006 1.075406797780e+006 1.075406797780e+006 1.075406797780e+006 1.075406797780e+006 1.075406797780e+006 1.075406797780e+006 1.075406797780e+006 1.075406797780e+006 1.074517965079e+006 1.074517965079e+006 1.074517965078e+006 1.074517965079e+006 1.074517965078e+006 1.074517965079e+006 1.074517965079e+006 1.074517965079e+006 1.074517965079e+006 1.073639580601e+006 1.073639580601e+006 1.073639580601e+006 1.073639580601e+006 1.073639580601e+006 1.073639580601e+006 1.073639580601e+006 1.073639580601e+006 1.073639580601e+006 1.072707841850e+006 1.072707841850e+006 1.072707841850e+006 1.072707841850e+006 1.072707841850e+006 1.072707841850e+006 1.072707841850e+006 1.072707841850e+006 1.072707841850e+006 1.071762802907e+006 1.071762802907e+006 1.071762802907e+006 1.071762802907e+006 1.071762802907e+006 1.071762802907e+006 1.071762802907e+006 1.071762802907e+006 1.071762802907e+006 1.070807621871e+006 1.070807621871e+006 1.070807621871e+006 1.070807621871e+006 1.070807621871e+006 1.070807621871e+006 1.070807621871e+006 1.070807621871e+006 1.070807621871e+006 1.069809305195e+006 1.069809305195e+006 1.069809305194e+006 1.069809305195e+006 1.069809305195e+006 1.069809305195e+006 1.069809305195e+006 1.069809305195e+006 1.069809305195e+006 1.068801543739e+006 1.068801543739e+006 1.068801543739e+006 1.068801543739e+006 1.068801543739e+006 1.068801543739e+006 1.068801543739e+006 1.068801543739e+006 1.068801543739e+006 1.067782922680e+006 1.067782922679e+006 1.067782922679e+006 1.067782922680e+006 1.067782922680e+006 1.067782922680e+006 1.067782922680e+006 1.067782922679e+006 1.067782922680e+006 1.066710802779e+006 1.066710802779e+006 1.066710802779e+006 1.066710802779e+006 1.066710802779e+006 1.066710802779e+006 1.066710802779e+006 1.066710802779e+006 1.066710802779e+006 1.065642492261e+006 1.065642492260e+006 1.065642492261e+006 1.065642492260e+006 1.065642492261e+006 1.065642492260e+006 1.065642492260e+006 1.065642492260e+006 1.065642492261e+006 1.064552225104e+006 1.064552225104e+006 1.064552225104e+006 1.064552225104e+006 1.064552225104e+006 1.064552225104e+006 1.064552225104e+006 1.064552225104e+006 1.064552225104e+006 1.063438868885e+006 1.063438868885e+006 1.063438868885e+006 1.063438868885e+006 1.063438868885e+006 1.063438868885e+006 1.063438868885e+006 1.063438868885e+006 1.063438868885e+006 1.062313764229e+006 1.062313764229e+006 1.062313764229e+006 1.062313764229e+006 1.062313764229e+006 1.062313764229e+006 1.062313764229e+006 1.062313764229e+006 1.062313764229e+006 1.061142281071e+006 1.061142281071e+006 1.061142281071e+006 1.061142281071e+006 1.061142281071e+006 1.061142281071e+006 1.061142281071e+006 1.061142281071e+006 1.061142281071e+006 1.059961873741e+006 1.059961873741e+006 1.059961873741e+006 1.059961873741e+006 1.059961873741e+006 1.059961873741e+006 1.059961873741e+006 1.059961873741e+006 1.059961873741e+006 1.058806922229e+006 1.058806922229e+006 1.058806922229e+006 1.058806922229e+006 1.058806922229e+006 1.058806922229e+006 1.058806922229e+006 1.058806922229e+006 1.058806922229e+006 1.057588954140e+006 1.057588954140e+006 1.057588954140e+006 1.057588954140e+006 1.057588954140e+006 1.057588954140e+006 1.057588954140e+006 1.057588954140e+006 1.057588954140e+006 1.056358345600e+006 1.056358345600e+006 1.056358345599e+006 1.056358345599e+006 1.056358345599e+006 1.056358345600e+006 1.056358345599e+006 1.056358345599e+006 1.056358345599e+006 1.055109020762e+006 1.055109020761e+006 1.055109020761e+006 1.055109020762e+006 1.055109020762e+006 1.055109020762e+006 1.055109020762e+006 1.055109020761e+006 1.055109020761e+006 1.053837129791e+006 1.053837129791e+006 1.053837129791e+006 1.053837129790e+006 1.053837129791e+006 1.053837129791e+006 1.053837129791e+006 1.053837129791e+006 1.053837129791e+006 1.052580268214e+006 1.052580268215e+006 1.052580268214e+006 1.052580268214e+006 1.052580268215e+006 1.052580268215e+006 1.052580268215e+006 1.052580268215e+006 1.052580268215e+006 1.051309230239e+006 1.051309230238e+006 1.051309230238e+006 1.051309230239e+006 1.051309230239e+006 1.051309230238e+006 1.051309230238e+006 1.051309230239e+006 1.051309230239e+006 1.050002640917e+006 1.050002640918e+006 1.050002640917e+006 1.050002640917e+006 1.050002640917e+006 1.050002640917e+006 1.050002640917e+006 1.050002640917e+006 1.050002640917e+006 1.048676588518e+006 1.048676588519e+006 1.048676588518e+006 1.048676588518e+006 1.048676588519e+006 1.048676588519e+006 1.048676588518e+006 1.048676588518e+006 1.048676588519e+006 1.047358916357e+006 1.047358916358e+006 1.047358916357e+006 1.047358916358e+006 1.047358916358e+006 1.047358916357e+006 1.047358916358e+006 1.047358916358e+006 1.047358916357e+006 1.045995144008e+006 1.045995144008e+006 1.045995144009e+006 1.045995144009e+006 1.045995144008e+006 1.045995144008e+006 1.045995144009e+006 1.045995144009e+006 1.045995144009e+006 1.044596330037e+006 1.044596330037e+006 1.044596330037e+006 1.044596330038e+006 1.044596330036e+006 1.044596330036e+006 1.044596330036e+006 1.044596330037e+006 1.044596330036e+006 1.043292893669e+006 1.043292893669e+006 1.043292893669e+006 1.043292893668e+006 1.043292893668e+006 1.043292893668e+006 1.043292893668e+006 1.043292893667e+006 1.043292893667e+006 1.041977462495e+006 1.041977462495e+006 1.041977462496e+006 1.041977462498e+006 1.041977462500e+006 1.041977462501e+006 1.041977462501e+006 1.041977462502e+006 1.041977462502e+006 1.040535296670e+006 1.040535296670e+006 1.040535296671e+006 1.040535296670e+006 1.040535296671e+006 1.040535296671e+006 1.040535296671e+006 1.040535296671e+006 1.040535296671e+006 1.039080272915e+006 1.039080272914e+006 1.039080272911e+006 1.039080272905e+006 1.039080272898e+006 1.039080272895e+006 1.039080272893e+006 1.039080272892e+006 1.039080272892e+006 1.037842772791e+006 1.037842772791e+006 1.037842772795e+006 1.037842772813e+006 1.037842772824e+006 1.037842772828e+006 1.037842772830e+006 1.037842772833e+006 1.037842772833e+006 1.036250588752e+006 1.036250588753e+006 1.036250588753e+006 1.036250588729e+006 1.036250588720e+006 1.036250588716e+006 1.036250588712e+006 1.036250588710e+006 1.036250588709e+006 1.035042473925e+006 1.035042473928e+006 1.035042473923e+006 1.035042473934e+006 1.035042473930e+006 1.035042473933e+006 1.035042473934e+006 1.035042473934e+006 1.035042473934e+006 1.033482108890e+006 1.033482108890e+006 1.033482108885e+006 1.033482108901e+006 1.033482108900e+006 1.033482108902e+006 1.033482108904e+006 1.033482108904e+006 1.033482108905e+006 1.032077089213e+006 1.032077089211e+006 1.032077089207e+006 1.032077089214e+006 1.032077089212e+006 1.032077089212e+006 1.032077089214e+006 1.032077089213e+006 1.032077089213e+006 1.030741170235e+006 1.030741170233e+006 1.030741170230e+006 1.030741170233e+006 1.030741170231e+006 1.030741170229e+006 1.030741170230e+006 1.030741170230e+006 1.030741170230e+006 1.029352124055e+006 1.029352124052e+006 1.029352124051e+006 1.029352124052e+006 1.029352124050e+006 1.029352124049e+006 1.029352124050e+006 1.029352124050e+006 1.029352124048e+006 1.027991827893e+006 1.027991827892e+006 1.027991827891e+006 1.027991827891e+006 1.027991827891e+006 1.027991827891e+006 1.027991827892e+006 1.027991827891e+006 1.027991827890e+006 1.026577102445e+006 1.026577102445e+006 1.026577102444e+006 1.026577102445e+006 1.026577102445e+006 1.026577102444e+006 1.026577102445e+006 1.026577102444e+006 1.026577102444e+006 1.025202498052e+006 1.025202498052e+006 1.025202498053e+006 1.025202498053e+006 1.025202498053e+006 1.025202498053e+006 1.025202498053e+006 1.025202498053e+006 1.025202498053e+006 1.023897012062e+006 1.023897012062e+006 1.023897012062e+006 1.023897012063e+006 1.023897012063e+006 1.023897012062e+006 1.023897012062e+006 1.023897012063e+006 1.023897012063e+006 1.022588910302e+006 1.022588910300e+006 1.022588910300e+006 1.022588910301e+006 1.022588910301e+006 1.022588910300e+006 1.022588910300e+006 1.022588910301e+006 1.022588910302e+006 1.021400451240e+006 1.021400451240e+006 1.021400451240e+006 1.021400451239e+006 1.021400451239e+006 1.021400451240e+006 1.021400451240e+006 1.021400451240e+006 1.021400451239e+006 1.020444554329e+006 1.020444554328e+006 1.020444554328e+006 1.020444554328e+006 1.020444554327e+006 1.020444554328e+006 1.020444554328e+006 1.020444554328e+006 1.020444554328e+006 1.019555517221e+006 1.019555517221e+006 1.019555517221e+006 1.019555517220e+006 1.019555517220e+006 1.019555517220e+006 1.019555517220e+006 1.019555517220e+006 1.019555517220e+006 1.018666500982e+006 1.018666500981e+006 1.018666500981e+006 1.018666500981e+006 1.018666500981e+006 1.018666500981e+006 1.018666500981e+006 1.018666500981e+006 1.018666500981e+006 1.017777503509e+006 1.017777503509e+006 1.017777503510e+006 1.017777503509e+006 1.017777503510e+006 1.017777503510e+006 1.017777503509e+006 1.017777503510e+006 1.017777503509e+006 1.016888523306e+006 1.016888523306e+006 1.016888523306e+006 1.016888523306e+006 1.016888523306e+006 1.016888523306e+006 1.016888523306e+006 1.016888523306e+006 1.016888523306e+006 1.015999559296e+006 1.015999559296e+006 1.015999559296e+006 1.015999559296e+006 1.015999559296e+006 1.015999559296e+006 1.015999559296e+006 1.015999559296e+006 1.015999559296e+006 1.015110610599e+006 1.015110610599e+006 1.015110610599e+006 1.015110610599e+006 1.015110610599e+006 1.015110610599e+006 1.015110610599e+006 1.015110610599e+006 1.015110610599e+006 1.014221676398e+006 1.014221676399e+006 1.014221676399e+006 1.014221676399e+006 1.014221676399e+006 1.014221676399e+006 1.014221676399e+006 1.014221676398e+006 1.014221676398e+006 1.013332755881e+006 1.013332755881e+006 1.013332755881e+006 1.013332755881e+006 1.013332755881e+006 1.013332755881e+006 1.013332755881e+006 1.013332755881e+006 1.013332755881e+006 1.012443848219e+006 1.012443848219e+006 1.012443848219e+006 1.012443848219e+006 1.012443848219e+006 1.012443848218e+006 1.012443848218e+006 1.012443848219e+006 1.012443848219e+006 1.011554952566e+006 1.011554952566e+006 1.011554952566e+006 1.011554952566e+006 1.011554952566e+006 1.011554952566e+006 1.011554952566e+006 1.011554952565e+006 1.011554952566e+006 1.010666068063e+006 1.010666068063e+006 1.010666068063e+006 1.010666068063e+006 1.010666068063e+006 1.010666068063e+006 1.010666068063e+006 1.010666068062e+006 1.010666068062e+006 1.009777193838e+006 1.009777193838e+006 1.009777193838e+006 1.009777193838e+006 1.009777193838e+006 1.009777193838e+006 1.009777193838e+006 1.009777193838e+006 1.009777193838e+006 1.008888329012e+006 1.008888329012e+006 1.008888329012e+006 1.008888329012e+006 1.008888329012e+006 1.008888329012e+006 1.008888329012e+006 1.008888329012e+006 1.008888329012e+006 1.007999472697e+006 1.007999472697e+006 1.007999472697e+006 1.007999472697e+006 1.007999472697e+006 1.007999472697e+006 1.007999472697e+006 1.007999472697e+006 1.007999472697e+006 1.007110623999e+006 1.007110624000e+006 1.007110623999e+006 1.007110623999e+006 1.007110623999e+006 1.007110623999e+006 1.007110624000e+006 1.007110623999e+006 1.007110623999e+006 1.006221782021e+006 1.006221782021e+006 1.006221782021e+006 1.006221782021e+006 1.006221782021e+006 1.006221782021e+006 1.006221782021e+006 1.006221782021e+006 1.006221782021e+006 1.005332945859e+006 1.005332945859e+006 1.005332945859e+006 1.005332945859e+006 1.005332945859e+006 1.005332945859e+006 1.005332945859e+006 1.005332945859e+006 1.005332945859e+006 1.004444114604e+006 1.004444114604e+006 1.004444114604e+006 1.004444114604e+006 1.004444114605e+006 1.004444114605e+006 1.004444114605e+006 1.004444114605e+006 1.004444114605e+006 1.003555287348e+006 1.003555287348e+006 1.003555287348e+006 1.003555287348e+006 1.003555287348e+006 1.003555287348e+006 1.003555287348e+006 1.003555287348e+006 1.003555287348e+006 1.002666463176e+006 1.002666463176e+006 1.002666463176e+006 1.002666463176e+006 1.002666463176e+006 1.002666463176e+006 1.002666463176e+006 1.002666463176e+006 1.002666463176e+006 1.001777641172e+006 1.001777641172e+006 1.001777641172e+006 1.001777641172e+006 1.001777641172e+006 1.001777641172e+006 1.001777641172e+006 1.001777641172e+006 1.001777641172e+006 1.000888820419e+006 1.000888820419e+006 1.000888820419e+006 1.000888820419e+006 1.000888820419e+006 1.000888820419e+006 1.000888820419e+006 1.000888820419e+006 1.000888820419e+006 1.000000000000e+006 1.000000000000e+006 1.000000000000e+006 1.000000000000e+006 1.000000000000e+006 1.000000000000e+006 1.000000000000e+006 1.000000000000e+006 1.000000000000e+006 
        </DataArray>
        <DataArray type="Float64" Name="MOLAR_FRACTION" format="ascii">