<?xml version="1.0"?>
<VTKFile type="UnstructuredGrid" version="0.1" byte_order="LittleEndian">
  <UnstructuredGrid>
    <Piece NumberOfPoints="909" NumberOfCells="800">
      <Points>
        <DataArray type="Float64" NumberOfComponents="3" format="ascii">
          0.000000000000e+000 0.000000000000e+000 0.000000000000e+000
          2.000000000000e+000 0.000000000000e+000 0.000000000000e+000
          2.000000000000e+000 2.500000000000e+000 0.000000000000e+000
          0.000000000000e+000 2.500000000000e+000 0.000000000000e+000
          2.000000000000e+000 5.000000000000e+000 0.000000000000e+000
          0.000000000000e+000 5.000000000000e+000 0.000000000000e+000
          2.000000000000e+000 7.500000000000e+000 0.000000000000e+000
          0.000000000000e+000 7.500000000000e+000 0.000000000000e+000
          2.000000000000e+000 1.000000000000e+001 0.000000000000e+000
          0.000000000000e+000 1.000000000000e+001 0.000000000000e+000
          2.000000000000e+000 1.250000000000e+001 0.000000000000e+000
          0.000000000000e+000 1.250000000000e+001 0.000000000000e+000
          2.000000000000e+000 1.500000000000e+001 0.000000000000e+000
          0.000000000000e+000 1.500000000000e+001 0.000000000000e+000
          2.000000000000e+000 1.750000000000e+001 0.000000000000e+000
          0.000000000000e+000 1.750000000000e+001 0.000000000000e+000
          2.000000000000e+000 2.000000000000e+001 0.000000000000e+000
          0.000000000000e+000 2.000000000000e+001 0.000000000000e+000
          4.000000000000e+000 0.000000000000e+000 0.000000000000e+000
          4.000000000000e+000 2.500000000000e+000 0.000000000000e+000
          4.000000000000e+000 5.000000000000e+000 0.000000000000e+000
          4.000000000000e+000 7.500000000000e+000 0.000000000000e+000
          4.000000000000e+000 1.000000000000e+001 0.000000000000e+000
          4.000000000000e+000 1.250000000000e+001 0.000000000000e+000
          4.000000000000e+000 1.500000000000e+001 0.000000000000e+000
          4.000000000000e+000 1.750000000000e+001 0.000000000000e+000
          4.000000000000e+000 2.000000000000e+001 0.000000000000e+000
          6.000000000000e+000 0.000000000000e+000 0.000000000000e+000
          6.000000000000e+000 2.500000000000e+000 0.000000000000e+000
          6.000000000000e+000 5.000000000000e+000 0.000000000000e+000
          6.000000000000e+000 7.500000000000e+000 0.000000000000e+000
          6.000000000000e+000 1.000000000000e+001 0.000000000000e+000
          6.000000000000e+000 1.250000000000e+001 0.000000000000e+000
          6.000000000000e+000 1.500000000000e+001 0.000000000000e+000
          6.000000000000e+000 1.750000000000e+001 0.000000000000e+000
          6.000000000000e+000 2.000000000000e+001 0.000000000000e+000
          8.000000000000e+000 0.000000000000e+000 0.000000000000e+000
          8.000000000000e+000 2.500000000000e+000 0.000000000000e+000
          8.000000000000e+000 5.000000000000e+000 0.000000000000e+000
          8.000000000000e+000 7.500000000000e+000 0.000000000000e+000
          8.000000000000e+000 1.000000000000e+001 0.000000000000e+000
          8.000000000000e+000 1.250000000000e+001 0.000000000000e+000
          8.000000000000e+000 1.500000000000e+001 0.000000000000e+000
          8.000000000000e+000 1.750000000000e+001 0.000000000000e+000
          8.000000000000e+000 2.000000000000e+001 0.000000000000e+000
          1.000000000000e+001 0.000000000000e+000 0.000000000000e+000
          1.000000000000e+001 2.500000000000e+000 0.000000000000e+000
          1.000000000000e+001 5.000000000000e+000 0.000000000000e+000
          1.000000000000e+001 7.500000000000e+000 0.000000000000e+000
          1.000000000000e+001 1.000000000000e+001 0.000000000000e+000
          1.000000000000e+001 1.250000000000e+001 0.000000000000e+000
          1.000000000000e+001 1.500000000000e+001 0.000000000000e+000
          1.000000000000e+001 1.750000000000e+001 0.000000000000e+000
          1.000000000000e+001 2.000000000000e+001 0.000000000000e+000
          1.200000000000e+001 0.000000000000e+000 0.000000000000e+000
          1.200000000000e+001 2.500000000000e+000 0.000000000000e+000
          1.200000000000e+001 5.000000000000e+000 0.000000000000e+000
          1.200000000000e+001 7.500000000000e+000 0.000000000000e+000
          1.200000000000e+001 1.000000000000e+001 0.000000000000e+000
          1.200000000000e+001 1.250000000000e+001 0.000000000000e+000
          1.200000000000e+001 1.500000000000e+001 0.000000000000e+000
          1.200000000000e+001 1.750000000000e+001 0.000000000000e+000
          1.200000000000e+001 2.000000000000e+001 0.000000000000e+000
          1.400000000000e+001 0.000000000000e+000 0.000000000000e+000
          1.400000000000e+001 2.500000000000e+000 0.000000000000e+000
          1.400000000000e+001 5.000000000000e+000 0.000000000000e+000
          1.400000000000e+001 7.500000000000e+000 0.000000000000e+000
          1.400000000000e+001 1.000000000000e+001 0.000000000000e+000
          1.400000000000e+001 1.250000000000e+001 0.000000000000e+000
          1.400000000000e+001 1.500000000000e+001 0.000000000000e+000
          1.400000000000e+001 1.750000000000e+001 0.000000000000e+000
          1.400000000000e+001 2.000000000000e+001 0.000000000000e+000
          1.600000000000e+001 0.000000000000e+000 0.000000000000e+000
          1.600000000000e+001 2.500000000000e+000 0.000000000000e+000
          1.600000000000e+001 5.000000000000e+000 0.000000000000e+000
          1.600000000000e+001 7.500000000000e+000 0.000000000000e+000
          1.600000000000e+001 1.000000000000e+001 0.000000000000e+000
          1.600000000000e+001 1.250000000000e+001 0.000000000000e+000
          1.600000000000e+001 1.500000000000e+001 0.000000000000e+000
          1.600000000000e+001 1.750000000000e+001 0.000000000000e+000
          1.600000000000e+001 2.000000000000e+001 0.000000000000e+000
          1.800000000000e+001 0.000000000000e+000 0.000000000000e+000
          1.800000000000e+001 2.500000000000e+000 0.000000000000e+000
          1.800000000000e+001 5.000000000000e+000 0.000000000000e+000
          1.800000000000e+001 7.500000000000e+000 0.000000000000e+000
          1.800000000000e+001 1.000000000000e+001 0.000000000000e+000
          1.800000000000e+001 1.250000000000e+001 0.000000000000e+000
          1.800000000000e+001 1.500000000000e+001 0.000000000000e+000
          1.800000000000e+001 1.750000000000e+001 0.000000000000e+000
          1.800000000000e+001 2.000000000000e+001 0.000000000000e+000
          2.000000000000e+001 0.000000000000e+000 0.000000000000e+000
          2.000000000000e+001 2.500000000000e+000 0.000000000000e+000
          2.000000000000e+001 5.000000000000e+000 0.000000000000e+000
          2.000000000000e+001 7.500000000000e+000 0.000000000000e+000
          2.000000000000e+001 1.000000000000e+001 0.000000000000e+000
          2.000000000000e+001 1.250000000000e+001 0.000000000000e+000
          2.000000000000e+001 1.500000000000e+001 0.000000000000e+000
          2.000000000000e+001 1.750000000000e+001 0.000000000000e+000
          2.000000000000e+001 2.000000000000e+001 0.000000000000e+000
          2.200000000000e+001 0.000000000000e+000 0.000000000000e+000
          2.200000000000e+001 2.500000000000e+000 0.000000000000e+000
          2.200000000000e+001 5.000000000000e+000 0.000000000000e+000
          2.200000000000e+001 7.500000000000e+000 0.000000000000e+000
          2.200000000000e+001 1.000000000000e+001 0.000000000000e+000
          2.200000000000e+001 1.250000000000e+001 0.000000000000e+000
          2.200000000000e+001 1.500000000000e+001 0.000000000000e+000
          2.200000000000e+001 1.750000000000e+001 0.000000000000e+000
          2.200000000000e+001 2.000000000000e+001 0.000000000000e+000
          2.400000000000e+001 0.000000000000e+000 0.000000000000e+000
          2.400000000000e+001 2.500000000000e+000 0.000000000000e+000
          2.400000000000e+001 5.000000000000e+000 0.000000000000e+000
          2.400000000000e+001 7.500000000000e+000 0.000000000000e+000
          2.400000000000e+001 1.000000000000e+001 0.000000000000e+000
          2.400000000000e+001 1.250000000000e+001 0.000000000000e+000
          2.400000000000e+001 1.500000000000e+001 0.000000000000e+000
          2.400000000000e+001 1.750000000000e+001 0.000000000000e+000
          2.400000000000e+001 2.000000000000e+001 0.000000000000e+000
          2.600000000000e+001 0.000000000000e+000 0.000000000000e+000
          2.600000000000e+001 2.500000000000e+000 0.000000000000e+000
          2.600000000000e+001 5.000000000000e+000 0.000000000000e+000
          2.600000000000e+001 7.500000000000e+000 0.000000000000e+000
          2.600000000000e+001 1.000000000000e+001 0.000000000000e+000
          2.600000000000e+001 1.250000000000e+001 0.000000000000e+000
          2.600000000000e+001 1.500000000000e+001 0.000000000000e+000
          2.600000000000e+001 1.750000000000e+001 0.000000000000e+000
          2.600000000000e+001 2.000000000000e+001 0.000000000000e+000
          2.800000000000e+001 0.000000000000e+000 0.000000000000e+000
          2.800000000000e+001 2.500000000000e+000 0.000000000000e+000
          2.800000000000e+001 5.000000000000e+000 0.000000000000e+000
          2.800000000000e+001 7.500000000000e+000 0.000000000000e+000
          2.800000000000e+001 1.000000000000e+001 0.000000000000e+000
          2.800000000000e+001 1.250000000000e+001 0.000000000000e+000
          2.800000000000e+001 1.500000000000e+001 0.000000000000e+000
          2.800000000000e+001 1.750000000000e+001 0.000000000000e+000
          2.800000000000e+001 2.000000000000e+001 0.000000000000e+000
          3.000000000000e+001 0.000000000000e+000 0.000000000000e+000
          3.000000000000e+001 2.500000000000e+000 0.000000000000e+000
          3.000000000000e+001 5.000000000000e+000 0.000000000000e+000
          3.000000000000e+001 7.500000000000e+000 0.000000000000e+000
[...]
      <PointData Scalars="LIQUID_PRESSURE">
        <DataArray type="Float64" Name="LIQUID_PRESSURE" format="ascii">
          1.013025407245e+006 1.013036804299e+006 1.013036804308e+006 1.013025407186e+006 1.013036804328e+006 1.013025407129e+006 1.013036804290e+006 1.013025407196e+006 1.013036804305e+006 1.013025407181e+006 1.013036804341e+006 1.013025407087e+006 1.013036804336e+006 1.013025407096e+006 1.013036804351e+006 1.013025407071e+006 1.013036804374e+006 1.013025407008e+006 1.013031458580e+006 1.013031458605e+006 1.013031458613e+006 1.013031458583e+006 1.013031458586e+006 1.013031458609e+006 1.013031458590e+006 1.013031458602e+006 1.013031458622e+006 1.012994895159e+006 1.012994895170e+006 1.012994895172e+006 1.012994895154e+006 1.012994895156e+006 1.012994895165e+006 1.012994895158e+006 1.012994895150e+006 1.012994895159e+006 1.013004422296e+006 1.013004422302e+006 1.013004422299e+006 1.013004422288e+006 1.013004422282e+006 1.013004422292e+006 1.013004422282e+006 1.013004422278e+006 1.013004422285e+006 1.012967608842e+006 1.012967608849e+006 1.012967608844e+006 1.012967608843e+006 1.012967608836e+006 1.012967608844e+006 1.012967608832e+006 1.012967608836e+006 1.012967608846e+006 1.012928817070e+006 1.012928817069e+006 1.012928817075e+006 1.012928817076e+006 1.012928817074e+006 1.012928817069e+006 1.012928817067e+006 1.012928817071e+006 1.012928817074e+006 1.012921143516e+006 1.012921143512e+006 1.012921143516e+006 1.012921143522e+006 1.012921143515e+006 1.012921143510e+006 1.012921143514e+006 1.012921143513e+006 1.012921143522e+006 1.012855738888e+006 1.012855738882e+006 1.012855738890e+006 1.012855738890e+006 1.012855738880e+006 1.012855738878e+006 1.012855738886e+006 1.012855738889e+006 1.012855738886e+006 1.012828055876e+006 1.012828055871e+006 1.012828055876e+006 1.012828055872e+006 1.012828055866e+006 1.012828055863e+006 1.012828055874e+006 1.012828055872e+006 1.012828055871e+006 1.012779003087e+006 1.012779003097e+006 1.012779003093e+006 1.012779003089e+006 1.012779003087e+006 1.012779003086e+006 1.012779003095e+006 1.012779003096e+006 1.012779003090e+006 1.012715375366e+006 1.012715375373e+006 1.012715375367e+006 1.012715375364e+006 1.012715375360e+006 1.012715375353e+006 1.012715375372e+006 1.012715375372e+006 1.012715375365e+006 1.012673326757e+006 1.012673326749e+006 1.012673326755e+006 1.012673326744e+006 1.012673326743e+006 1.012673326747e+006 1.012673326744e+006 1.012673326748e+006 1.012673326754e+006 1.012592748663e+006 1.012592748653e+006 1.012592748645e+006 1.012592748646e+006 1.012592748643e+006 1.012592748642e+006 1.012592748646e+006 1.012592748644e+006 1.012592748647e+006 1.012540838201e+006 1.012540838197e+006 1.012540838186e+006 1.012540838193e+006 1.012540838187e+006 1.012540838192e+006 1.012540838191e+006 1.012540838193e+006 1.012540838192e+006 1.012459372288e+006 1.012459372289e+006 1.012459372287e+006 1.012459372284e+006 1.012459372285e+006 1.012459372280e+006 1.012459372283e+006 1.012459372283e+006 1.012459372286e+006 1.012383434668e+006 1.012383434667e+006 1.012383434662e+006 1.012383434661e+006 1.012383434666e+006 1.012383434660e+006 1.012383434666e+006 1.012383434664e+006 1.012383434666e+006 1.012311724270e+006 1.012311724282e+006 1.012311724273e+006 1.012311724276e+006 1.012311724282e+006 1.012311724281e+006 1.012311724285e+006 1.012311724277e+006 1.012311724280e+006 1.012207535565e+006 1.012207535565e+006 1.012207535564e+006 1.012207535557e+006 1.012207535563e+006 1.012207535570e+006 1.012207535563e+006 1.012207535567e+006 1.012207535568e+006 1.012137639696e+006 1.012137639688e+006 1.012137639690e+006 1.012137639698e+006 1.012137639692e+006 1.012137639688e+006 1.012137639690e+006 1.012137639693e+006 1.012137639700e+006 1.012028465421e+006 1.012028465417e+006 1.012028465418e+006 1.012028465433e+006 1.012028465423e+006 1.012028465424e+006 1.012028465425e+006 1.012028465422e+006 1.012028465430e+006 1.011936239614e+006 1.011936239622e+006 1.011936239624e+006 1.011936239625e+006 1.011936239625e+006 1.011936239624e+006 1.011936239624e+006 1.011936239624e+006 1.011936239621e+006 1.011832443909e+006 1.011832443911e+006 1.011832443917e+006 1.011832443915e+006 1.011832443920e+006 1.011832443924e+006 1.011832443920e+006 1.011832443920e+006 1.011832443920e+006 1.011721596906e+006 1.011721596900e+006 1.011721596903e+006 1.011721596905e+006 1.011721596910e+006 1.011721596914e+006 1.011721596917e+006 1.011721596915e+006 1.011721596910e+006 1.011619019061e+006 1.011619019062e+006 1.011619019059e+006 1.011619019063e+006 1.011619019064e+006 1.011619019067e+006 1.011619019074e+006 1.011619019071e+006 1.011619019068e+006 1.011491428589e+006 1.011491428599e+006 1.011491428594e+006 1.011491428595e+006 1.011491428596e+006 1.011491428598e+006 1.011491428600e+006 1.011491428602e+006 1.011491428598e+006 1.011383007594e+006 1.011383007591e+006 1.011383007594e+006 1.011383007591e+006 1.011383007592e+006 1.011383007591e+006 1.011383007595e+006 1.011383007602e+006 1.011383007598e+006 1.011255996449e+006 1.011255996444e+006 1.011255996443e+006 1.011255996446e+006 1.011255996443e+006 1.011255996437e+006 1.011255996446e+006 1.011255996449e+006 1.011255996457e+006 1.011123529942e+006 1.011123529937e+006 1.011123529929e+006 1.011123529932e+006 1.011123529933e+006 1.011123529933e+006 1.011123529936e+006 1.011123529941e+006 1.011123529949e+006 1.011006577895e+006 1.011006577896e+006 1.011006577892e+006 1.011006577892e+006 1.011006577894e+006 1.011006577894e+006 1.011006577893e+006 1.011006577895e+006 1.011006577896e+006 1.010857990455e+006 1.010857990453e+006 1.010857990453e+006 1.010857990460e+006 1.010857990456e+006 1.010857990454e+006 1.010857990458e+006 1.010857990456e+006 1.010857990453e+006 1.010727962689e+006 1.010727962692e+006 1.010727962696e+006 1.010727962701e+006 1.010727962701e+006 1.010727962697e+006 1.010727962704e+006 1.010727962702e+006 1.010727962702e+006 1.010590618263e+006 1.010590618260e+006 1.010590618262e+006 1.010590618268e+006 1.010590618271e+006 1.010590618268e+006 1.010590618267e+006 1.010590618261e+006 1.010590618266e+006 1.010433705121e+006 1.010433705115e+006 1.010433705119e+006 1.010433705121e+006 1.010433705123e+006 1.010433705120e+006 1.010433705119e+006 1.010433705117e+006 1.010433705114e+006 1.010300351542e+006 1.010300351544e+006 1.010300351543e+006 1.010300351547e+006 1.010300351550e+006 1.010300351545e+006 1.010300351551e+006 1.010300351543e+006 1.010300351545e+006 1.010142219706e+006 1.010142219702e+006 1.010142219703e+006 1.010142219702e+006 1.010142219707e+006 1.010142219707e+006 1.010142219706e+006 1.010142219707e+006 1.010142219703e+006 1.009986598386e+006 1.009986598388e+006 1.009986598387e+006 1.009986598386e+006 1.009986598390e+006 1.009986598389e+006 1.009986598389e+006 1.009986598388e+006 1.009986598387e+006 1.009838127286e+006 1.009838127293e+006 1.009838127295e+006 1.009838127294e+006 1.009838127292e+006 1.009838127295e+006 1.009838127297e+006 1.009838127292e+006 1.009838127287e+006 1.009671432457e+006 1.009671432454e+006 1.009671432453e+006 1.009671432456e+006 1.009671432456e+006 1.009671432457e+006 1.009671432454e+006 1.009671432452e+006 1.009671432452e+006 1.009508739004e+006 1.009508739000e+006 1.009508739003e+006 1.009508739000e+006 1.009508739003e+006 1.009508739001e+006 1.009508739001e+006 1.009508738998e+006 1.009508739003e+006 1.009354017696e+006 1.009354017698e+006 1.009354017695e+006 1.009354017698e+006 1.009354017695e+006 1.009354017695e+006 1.009354017695e+006 1.009354017694e+006 1.009354017694e+006 1.009175634862e+006 1.009175634865e+006 1.009175634864e+006 1.009175634866e+006 1.009175634864e+006 1.009175634861e+006 1.009175634860e+006 1.009175634862e+006 1.009175634862e+006 1.009010117043e+006 1.009010117044e+006 1.009010117045e+006 1.009010117045e+006 1.009010117045e+006 1.009010117038e+006 1.009010117047e+006 1.009010117041e+006 1.009010117043e+006 1.008839242987e+006 1.008839242991e+006 1.008839242989e+006 1.008839242986e+006 1.008839242987e+006 1.008839242984e+006 1.008839242984e+006 1.008839242992e+006 1.008839242993e+006 1.008661399750e+006 1.008661399756e+006 1.008661399755e+006 1.008661399753e+006 1.008661399751e+006 1.008661399748e+006 1.008661399748e+006 1.008661399751e+006 1.008661399751e+006 1.008494186576e+006 1.008494186581e+006 1.008494186580e+006 1.008494186583e+006 1.008494186577e+006 1.008494186575e+006 1.008494186573e+006 1.008494186575e+006 1.008494186578e+006 1.008309353788e+006 1.008309353789e+006 1.008309353793e+006 1.008309353794e+006 1.008309353788e+006 1.008309353790e+006 1.008309353791e+006 1.008309353789e+006 1.008309353793e+006 1.008120779306e+006 1.008120779307e+006 1.008120779308e+006 1.008120779310e+006 1.008120779311e+006 1.008120779308e+006 1.008120779310e+006 1.008120779309e+006 1.008120779306e+006 1.007956649699e+006 1.007956649703e+006 1.007956649703e+006 1.007956649703e+006 1.007956649706e+006 1.007956649704e+006 1.007956649705e+006 1.007956649704e+006 1.007956649704e+006 1.007762882988e+006 1.007762882991e+006 1.007762882992e+006 1.007762882995e+006 1.007762882994e+006 1.007762882991e+006 1.007762882992e+006 1.007762882992e+006 1.007762882995e+006 1.007580187627e+006 1.007580187625e+006 1.007580187627e+006 1.007580187627e+006 1.007580187624e+006 1.007580187626e+006 1.007580187627e+006 1.007580187626e+006 1.007580187625e+006 1.007396185866e+006 1.007396185863e+006 1.007396185862e+006 1.007396185862e+006 1.007396185857e+006 1.007396185862e+006 1.007396185863e+006 1.007396185862e+006 1.007396185860e+006 1.007202563798e+006 1.007202563802e+006 1.007202563803e+006 1.007202563799e+006 1.007202563796e+006 1.007202563799e+006 1.007202563797e+006 1.007202563797e+006 1.007202563797e+006 1.007017355550e+006 1.007017355555e+006 1.007017355557e+006 1.007017355557e+006 1.007017355556e+006 1.007017355553e+006 1.007017355553e+006 1.007017355552e+006 1.007017355553e+006 1.006832422047e+006 1.006832422047e+006 1.006832422047e+006 1.006832422048e+006 1.006832422047e+006 1.006832422044e+006 1.006832422045e+006 1.006832422046e+006 1.006832422046e+006 1.006636685199e+006 1.006636685202e+006 1.006636685203e+006 1.006636685200e+006 1.006636685201e+006 1.006636685197e+006 1.006636685201e+006 1.006636685201e+006 1.006636685201e+006 1.006442831982e+006 1.006442831985e+006 1.006442831984e+006 1.006442831983e+006 1.006442831983e+006 1.006442831983e+006 1.006442831982e+006 1.006442831985e+006 1.006442831985e+006 1.006256702696e+006 1.006256702699e+006 1.006256702700e+006 1.006256702698e+006 1.006256702698e+006 1.006256702700e+006 1.006256702699e+006 1.006256702699e+006 1.006256702698e+006 1.006076346095e+006 1.006076346098e+006 1.006076346096e+006 1.006076346096e+006 1.006076346098e+006 1.006076346097e+006 1.006076346100e+006 1.006076346096e+006 1.006076346096e+006 1.005847078379e+006 1.005847078377e+006 1.005847078377e+006 1.005847078374e+006 1.005847078373e+006 1.005847078373e+006 1.005847078374e+006 1.005847078373e+006 1.005847078373e+006 1.005679074943e+006 1.005679074944e+006 1.005679074942e+006 1.005679074945e+006 1.005679074949e+006 1.005679074950e+006 1.005679074949e+006 1.005679074951e+006 1.005679074948e+006 1.005502824500e+006 1.005502824499e+006 1.005502824500e+006 1.005502824494e+006 1.005502824491e+006 1.005502824489e+006 1.005502824487e+006 1.005502824488e+006 1.005502824485e+006 1.005294272080e+006 1.005294272082e+006 1.005294272084e+006 1.005294272094e+006 1.005294272100e+006 1.005294272105e+006 1.005294272103e+006 1.005294272107e+006 1.005294272104e+006 1.005051570053e+006 1.005051570049e+006 1.005051570051e+006 1.005051570033e+006 1.005051570030e+006 1.005051570024e+006 1.005051570024e+006 1.005051570022e+006 1.005051570019e+006 1.004979729359e+006 1.004979729360e+006 1.004979729358e+006 1.004979729382e+006 1.004979729392e+006 1.004979729392e+006 1.004979729394e+006 1.004979729394e+006 1.004979729397e+006 1.004634772065e+006 1.004634772061e+006 1.004634772069e+006 1.004634772051e+006 1.004634772050e+006 1.004634772048e+006 1.004634772042e+006 1.004634772038e+006 1.004634772037e+006 1.004593806370e+006 1.004593806375e+006 1.004593806377e+006 1.004593806380e+006 1.004593806385e+006 1.004593806389e+006 1.004593806388e+006 1.004593806384e+006 1.004593806386e+006 1.004301530079e+006 1.004301530083e+006 1.004301530078e+006 1.004301530089e+006 1.004301530086e+006 1.004301530088e+006 1.004301530088e+006 1.004301530090e+006 1.004301530089e+006 1.004137484582e+006 1.004137484584e+006 1.004137484579e+006 1.004137484583e+006 1.004137484579e+006 1.004137484581e+006 1.004137484580e+006 1.004137484581e+006 1.004137484583e+006 1.003970640768e+006 1.003970640771e+006 1.003970640769e+006 1.003970640770e+006 1.003970640768e+006 1.003970640768e+006 1.003970640769e+006 1.003970640770e+006 1.003970640770e+006 1.003769415644e+006 1.003769415641e+006 1.003769415642e+006 1.003769415642e+006 1.003769415641e+006 1.003769415642e+006 1.003769415643e+006 1.003769415642e+006 1.003769415645e+006 1.003592048649e+006 1.003592048649e+006 1.003592048648e+006 1.003592048649e+006 1.003592048649e+006 1.003592048650e+006 1.003592048650e+006 1.003592048650e+006 1.003592048649e+006 1.003399745538e+006 1.003399745537e+006 1.003399745537e+006 1.003399745538e+006 1.003399745538e+006 1.003399745537e+006 1.003399745538e+006 1.003399745536e+006 1.003399745535e+006 1.003215922851e+006 1.003215922851e+006 1.003215922851e+006 1.003215922851e+006 1.003215922851e+006 1.003215922850e+006 1.003215922849e+006 1.003215922849e+006 1.003215922849e+006 1.003064671532e+006 1.003064671532e+006 1.003064671533e+006 1.003064671533e+006 1.003064671532e+006 1.003064671532e+006 1.003064671532e+006 1.003064671533e+006 1.003064671531e+006 1.002868068171e+006 1.002868068170e+006 1.002868068171e+006 1.002868068171e+006 1.002868068170e+006 1.002868068171e+006 1.002868068170e+006 1.002868068169e+006 1.002868068174e+006 1.002704840639e+006 1.002704840640e+006 1.002704840640e+006 1.002704840638e+006 1.002704840638e+006 1.002704840638e+006 1.002704840639e+006 1.002704840638e+006 1.002704840638e+006 1.002548735104e+006 1.002548735102e+006 1.002548735104e+006 1.002548735104e+006 1.002548735104e+006 1.002548735104e+006 1.002548735103e+006 1.002548735105e+006 1.002548735105e+006 1.002371097967e+006 1.002371097968e+006 1.002371097966e+006 1.002371097968e+006 1.002371097968e+006 1.002371097967e+006 1.002371097967e+006 1.002371097968e+006 1.002371097968e+006 1.002237009506e+006 1.002237009506e+006 1.002237009508e+006 1.002237009508e+006 1.002237009508e+006 1.002237009508e+006 1.002237009507e+006 1.002237009507e+006 1.002237009508e+006 1.002099441204e+006 1.002099441205e+006 1.002099441206e+006 1.002099441206e+006 1.002099441206e+006 1.002099441206e+006 1.002099441206e+006 1.002099441205e+006 1.002099441205e+006 1.001994465108e+006 1.001994465108e+006 1.001994465109e+006 1.001994465109e+006 1.001994465109e+006 1.001994465109e+006 1.001994465109e+006 1.001994465108e+006 1.001994465108e+006 1.001889490089e+006 1.001889490090e+006 1.001889490090e+006 1.001889490090e+006 1.001889490090e+006 1.001889490089e+006 1.001889490089e+006 1.001889490089e+006 1.001889490089e+006 1.001784515431e+006 1.001784515431e+006 1.001784515431e+006 1.001784515431e+006 1.001784515431e+006 1.001784515431e+006 1.001784515430e+006 1.001784515430e+006 1.001784515430e+006 1.001679541350e+006 1.001679541350e+006 1.001679541350e+006 1.001679541350e+006 1.001679541350e+006 1.001679541350e+006 1.001679541350e+006 1.001679541350e+006 1.001679541350e+006 1.001574567777e+006 1.001574567777e+006 1.001574567777e+006 1.001574567776e+006 1.001574567776e+006 1.001574567777e+006 1.001574567776e+006 1.001574567776e+006 1.001574567776e+006 1.001469594668e+006 1.001469594669e+006 1.001469594668e+006 1.001469594668e+006 1.001469594668e+006 1.001469594668e+006 1.001469594668e+006 1.001469594668e+006 1.001469594668e+006 1.001364621992e+006 1.001364621992e+006 1.001364621992e+006 1.001364621992e+006 1.001364621992e+006 1.001364621992e+006 1.001364621992e+006 1.001364621992e+006 1.001364621992e+006 1.001259649712e+006 1.001259649712e+006 1.001259649712e+006 1.001259649712e+006 1.001259649712e+006 1.001259649712e+006 1.001259649712e+006 1.001259649712e+006 1.001259649712e+006 1.001154677793e+006 1.001154677793e+006 1.001154677793e+006 1.001154677793e+006 1.001154677793e+006 1.001154677793e+006 1.001154677793e+006 1.001154677793e+006 1.001154677793e+006 1.001049706198e+006 1.001049706198e+006 1.001049706198e+006 1.001049706198e+006 1.001049706198e+006 1.001049706198e+006 1.001049706198e+006 1.001049706198e+006 1.001049706198e+006 1.000944734890e+006 1.000944734890e+006 1.000944734890e+006 1.000944734890e+006 1.000944734890e+006 1.000944734890e+006 1.000944734890e+006 1.000944734890e+006 1.000944734890e+006 1.000839763833e+006 1.000839763833e+006 1.000839763833e+006 1.000839763833e+006 1.000839763833e+006 1.000839763834e+006 1.000839763834e+006 1.000839763834e+006 1.000839763834e+006 1.000734792991e+006 1.000734792991e+006 1.000734792991e+006 1.000734792991e+006 1.000734792991e+006 1.000734792991e+006 1.000734792991e+006 1.000734792991e+006 1.000734792991e+006 1.000629822326e+006 1.000629822326e+006 1.000629822326e+006 1.000629822326e+006 1.000629822326e+006 1.000629822326e+006 1.000629822326e+006 1.000629822326e+006 1.000629822326e+006 1.000524851802e+006 1.000524851802e+006 1.000524851802e+006 1.000524851802e+006 1.000524851802e+006 1.000524851802e+006 1.000524851802e+006 1.000524851802e+006 1.000524851802e+006 1.000419881382e+006 1.000419881382e+006 1.000419881382e+006 1.000419881382e+006 1.000419881382e+006 1.000419881382e+006 1.000419881382e+006 1.000419881382e+006 1.000419881382e+006 1.000314911029e+006 1.000314911029e+006 1.000314911029e+006 1.000314911029e+006 1.000314911029e+006 1.000314911029e+006 1.000314911029e+006 1.000314911029e+006 1.000314911029e+006 1.000209940705e+006 1.000209940705e+006 1.000209940705e+006 1.000209940705e+006 1.000209940705e+006 1.000209940706e+006 1.000209940706e+006 1.000209940705e+006 1.000209940705e+006 1.000104970375e+006 1.000104970375e+006 1.000104970375e+006 1.000104970375e+006 1.000104970375e+006 1.000104970375e+006 1.000104970375e+006 1.000104970375e+006 1.000104970375e+006 1.000000000000e+006 1.000000000000e+006 1.000000000000e+006 1.000000000000e+006 1.000000000000e+006 1.000000000000e+006 1.000000000000e+006 1.000000000000e+006 1.000000000000e+006 
        </DataArray>
        <DataArray type="Float64" Name="MOLAR_FRACTION" format="ascii">