<?xml version="1.0"?>
<VTKFile type="UnstructuredGrid" version="0.1" byte_order="LittleEndian">
  <UnstructuredGrid>
    <Piece NumberOfPoints="909" NumberOfCells="800">
      <Points>
        <DataArray type="Float64" NumberOfComponents="3" format="ascii">
          0.000000000000e+000 0.000000000000e+000 0.000000000000e+000
          2.000000000000e+000 0.000000000000e+000 0.000000000000e+000
          2.000000000000e+000 2.500000000000e+000 0.000000000000e+000
          0.000000000000e+000 2.500000000000e+000 0.000000000000e+000
          2.000000000000e+000 5.000000000000e+000 0.000000000000e+000
          0.000000000000e+000 5.000000000000e+000 0.000000000000e+000
          2.000000000000e+000 7.500000000000e+000 0.000000000000e+000
          0.000000000000e+000 7.500000000000e+000 0.000000000000e+000
          2.000000000000e+000 1.000000000000e+001 0.000000000000e+000
          0.000000000000e+000 1.000000000000e+001 0.000000000000e+000
          2.000000000000e+000 1.250000000000e+001 0.000000000000e+000
          0.000000000000e+000 1.250000000000e+001 0.000000000000e+000
          2.000000000000e+000 1.500000000000e+001 0.000000000000e+000
          0.000000000000e+000 1.500000000000e+001 0.000000000000e+000
          2.000000000000e+000 1.750000000000e+001 0.000000000000e+000
          0.000000000000e+000 1.750000000000e+001 0.000000000000e+000
          2.000000000000e+000 2.000000000000e+001 0.000000000000e+000
          0.000000000000e+000 2.000000000000e+001 0.000000000000e+000
          4.000000000000e+000 0.000000000000e+000 0.000000000000e+000
          4.000000000000e+000 2.500000000000e+000 0.000000000000e+000
          4.000000000000e+000 5.000000000000e+000 0.000000000000e+000
          4.000000000000e+000 7.500000000000e+000 0.000000000000e+000
          4.000000000000e+000 1.000000000000e+001 0.000000000000e+000
          4.000000000000e+000 1.250000000000e+001 0.000000000000e+000
          4.000000000000e+000 1.500000000000e+001 0.000000000000e+000
          4.000000000000e+000 1.750000000000e+001 0.000000000000e+000
          4.000000000000e+000 2.000000000000e+001 0.000000000000e+000
          6.000000000000e+000 0.000000000000e+000 0.000000000000e+000
          6.000000000000e+000 2.500000000000e+000 0.000000000000e+000
          6.000000000000e+000 5.000000000000e+000 0.000000000000e+000
          6.000000000000e+000 7.500000000000e+000 0.000000000000e+000
          6.000000000000e+000 1.000000000000e+001 0.000000000000e+000
          6.000000000000e+000 1.250000000000e+001 0.000000000000e+000
          6.000000000000e+000 1.500000000000e+001 0.000000000000e+000
          6.000000000000e+000 1.750000000000e+001 0.000000000000e+000
          6.000000000000e+000 2.000000000000e+001 0.000000000000e+000
          8.000000000000e+000 0.000000000000e+000 0.000000000000e+000
          8.000000000000e+000 2.500000000000e+000 0.000000000000e+000
          8.000000000000e+000 5.000000000000e+000 0.000000000000e+000
          8.000000000000e+000 7.500000000000e+000 0.000000000000e+000
          8.000000000000e+000 1.000000000000e+001 0.000000000000e+000
          8.000000000000e+000 1.250000000000e+001 0.000000000000e+000
          8.000000000000e+000 1.500000000000e+001 0.000000000000e+000
          8.000000000000e+000 1.750000000000e+001 0.000000000000e+000
          8.000000000000e+000 2.000000000000e+001 0.000000000000e+000
          1.000000000000e+001 0.000000000000e+000 0.000000000000e+000
          1.000000000000e+001 2.500000000000e+000 0.000000000000e+000
          1.000000000000e+001 5.000000000000e+000 0.000000000000e+000
          1.000000000000e+001 7.500000000000e+000 0.000000000000e+000
          1.000000000000e+001 1.000000000000e+001 0.000000000000e+000
          1.000000000000e+001 1.250000000000e+001 0.000000000000e+000
          1.000000000000e+001 1.500000000000e+001 0.000000000000e+000
          1.000000000000e+001 1.750000000000e+001 0.000000000000e+000
          1.000000000000e+001 2.000000000000e+001 0.000000000000e+000
          1.200000000000e+001 0.000000000000e+000 0.000000000000e+000
          1.200000000000e+001 2.500000000000e+000 0.000000000000e+000
          1.200000000000e+001 5.000000000000e+000 0.000000000000e+000
          1.200000000000e+001 7.500000000000e+000 0.000000000000e+000
          1.200000000000e+001 1.000000000000e+001 0.000000000000e+000
          1.200000000000e+001 1.250000000000e+001 0.000000000000e+000
          1.200000000000e+001 1.500000000000e+001 0.000000000000e+000
          1.200000000000e+001 1.750000000000e+001 0.000000000000e+000
          1.200000000000e+001 2.000000000000e+001 0.000000000000e+000
          1.400000000000e+001 0.000000000000e+000 0.000000000000e+000
          1.400000000000e+001 2.500000000000e+000 0.000000000000e+000
          1.400000000000e+001 5.000000000000e+000 0.000000000000e+000
          1.400000000000e+001 7.500000000000e+000 0.000000000000e+000
          1.400000000000e+001 1.000000000000e+001 0.000000000000e+000
          1.400000000000e+001 1.250000000000e+001 0.000000000000e+000
          1.400000000000e+001 1.500000000000e+001 0.000000000000e+000
          1.400000000000e+001 1.750000000000e+001 0.000000000000e+000
          1.400000000000e+001 2.000000000000e+001 0.000000000000e+000
          1.600000000000e+001 0.000000000000e+000 0.000000000000e+000
          1.600000000000e+001 2.500000000000e+000 0.000000000000e+000
          1.600000000000e+001 5.000000000000e+000 0.000000000000e+000
          1.600000000000e+001 7.500000000000e+000 0.000000000000e+000
          1.600000000000e+001 1.000000000000e+001 0.000000000000e+000
          1.600000000000e+001 1.250000000000e+001 0.000000000000e+000
          1.600000000000e+001 1.500000000000e+001 0.000000000000e+000
          1.600000000000e+001 1.750000000000e+001 0.000000000000e+000
          1.600000000000e+001 2.000000000000e+001 0.000000000000e+000
          1.800000000000e+001 0.000000000000e+000 0.000000000000e+000
          1.800000000000e+001 2.500000000000e+000 0.000000000000e+000
          1.800000000000e+001 5.000000000000e+000 0.000000000000e+000
          1.800000000000e+001 7.500000000000e+000 0.000000000000e+000
          1.800000000000e+001 1.000000000000e+001 0.000000000000e+000
          1.800000000000e+001 1.250000000000e+001 0.000000000000e+000
          1.800000000000e+001 1.500000000000e+001 0.000000000000e+000
          1.800000000000e+001 1.750000000000e+001 0.000000000000e+000
          1.800000000000e+001 2.000000000000e+001 0.000000000000e+000
          2.000000000000e+001 0.000000000000e+000 0.000000000000e+000
          2.000000000000e+001 2.500000000000e+000 0.000000000000e+000
          2.000000000000e+001 5.000000000000e+000 0.000000000000e+000
          2.000000000000e+001 7.500000000000e+000 0.000000000000e+000
          2.000000000000e+001 1.000000000000e+001 0.000000000000e+000
          2.000000000000e+001 1.250000000000e+001 0.000000000000e+000
          2.000000000000e+001 1.500000000000e+001 0.000000000000e+000
          2.000000000000e+001 1.750000000000e+001 0.000000000000e+000
          2.000000000000e+001 2.000000000000e+001 0.000000000000e+000
          2.200000000000e+001 0.000000000000e+000 0.000000000000e+000
          2.200000000000e+001 2.500000000000e+000 0.000000000000e+000
          2.200000000000e+001 5.000000000000e+000 0.000000000000e+000
          2.200000000000e+001 7.500000000000e+000 0.000000000000e+000
          2.200000000000e+001 1.000000000000e+001 0.000000000000e+000
          2.200000000000e+001 1.250000000000e+001 0.000000000000e+000
          2.200000000000e+001 1.500000000000e+001 0.000000000000e+000
          2.200000000000e+001 1.750000000000e+001 0.000000000000e+000
          2.200000000000e+001 2.000000000000e+001 0.000000000000e+000
          2.400000000000e+001 0.000000000000e+000 0.000000000000e+000
          2.400000000000e+001 2.500000000000e+000 0.000000000000e+000
          2.400000000000e+001 5.000000000000e+000 0.000000000000e+000
          2.400000000000e+001 7.500000000000e+000 0.000000000000e+000
          2.400000000000e+001 1.000000000000e+001 0.000000000000e+000
          2.400000000000e+001 1.250000000000e+001 0.000000000000e+000
          2.400000000000e+001 1.500000000000e+001 0.000000000000e+000
          2.400000000000e+001 1.750000000000e+001 0.000000000000e+000
          2.400000000000e+001 2.000000000000e+001 0.000000000000e+000
          2.600000000000e+001 0.000000000000e+000 0.000000000000e+000
          2.600000000000e+001 2.500000000000e+000 0.000000000000e+000
          2.600000000000e+001 5.000000000000e+000 0.000000000000e+000
          2.600000000000e+001 7.500000000000e+000 0.000000000000e+000
          2.600000000000e+001 1.000000000000e+001 0.000000000000e+000
          2.600000000000e+001 1.250000000000e+001 0.000000000000e+000
          2.600000000000e+001 1.500000000000e+001 0.000000000000e+000
          2.600000000000e+001 1.750000000000e+001 0.000000000000e+000
          2.600000000000e+001 2.000000000000e+001 0.000000000000e+000
          2.800000000000e+001 0.000000000000e+000 0.000000000000e+000
          2.800000000000e+001 2.500000000000e+000 0.000000000000e+000
          2.800000000000e+001 5.000000000000e+000 0.000000000000e+000
          2.800000000000e+001 7.500000000000e+000 0.000000000000e+000
          2.800000000000e+001 1.000000000000e+001 0.000000000000e+000
          2.800000000000e+001 1.250000000000e+001 0.000000000000e+000
          2.800000000000e+001 1.500000000000e+001 0.000000000000e+000
          2.800000000000e+001 1.750000000000e+001 0.000000000000e+000
          2.800000000000e+001 2.000000000000e+001 0.000000000000e+000
          3.000000000000e+001 0.000000000000e+000 0.000000000000e+000
          3.000000000000e+001 2.500000000000e+000 0.000000000000e+000
          3.000000000000e+001 5.000000000000e+000 0.000000000000e+000
          3.000000000000e+001 7.500000000000e+000 0.000000000000e+000
[...]
      <PointData Scalars="LIQUID_PRESSURE">
        <DataArray type="Float64" Name="LIQUID_PRESSURE" format="ascii">
          1.006890817088e+006 1.006901602151e+006 1.006901602161e+006 1.006890817032e+006 1.006901602179e+006 1.006890816985e+006 1.006901602149e+006 1.006890817052e+006 1.006901602168e+006 1.006890817038e+006 1.006901602201e+006 1.006890816958e+006 1.006901602202e+006 1.006890816970e+006 1.006901602214e+006 1.006890816947e+006 1.006901602235e+006 1.006890816891e+006 1.006900732518e+006 1.006900732542e+006 1.006900732550e+006 1.006900732528e+006 1.006900732531e+006 1.006900732555e+006 1.006900732539e+006 1.006900732549e+006 1.006900732568e+006 1.006871094373e+006 1.006871094382e+006 1.006871094386e+006 1.006871094374e+006 1.006871094377e+006 1.006871094389e+006 1.006871094381e+006 1.006871094377e+006 1.006871094382e+006 1.006886995643e+006 1.006886995647e+006 1.006886995647e+006 1.006886995639e+006 1.006886995639e+006 1.006886995646e+006 1.006886995638e+006 1.006886995636e+006 1.006886995642e+006 1.006862682999e+006 1.006862683003e+006 1.006862682999e+006 1.006862682998e+006 1.006862682994e+006 1.006862683001e+006 1.006862682991e+006 1.006862682996e+006 1.006862683005e+006 1.006837063677e+006 1.006837063677e+006 1.006837063679e+006 1.006837063679e+006 1.006837063678e+006 1.006837063678e+006 1.006837063675e+006 1.006837063679e+006 1.006837063679e+006 1.006843906567e+006 1.006843906560e+006 1.006843906562e+006 1.006843906564e+006 1.006843906560e+006 1.006843906559e+006 1.006843906560e+006 1.006843906559e+006 1.006843906565e+006 1.006797985055e+006 1.006797985042e+006 1.006797985048e+006 1.006797985048e+006 1.006797985043e+006 1.006797985041e+006 1.006797985045e+006 1.006797985047e+006 1.006797985041e+006 1.006789467387e+006 1.006789467380e+006 1.006789467385e+006 1.006789467384e+006 1.006789467381e+006 1.006789467376e+006 1.006789467386e+006 1.006789467380e+006 1.006789467381e+006 1.006763337959e+006 1.006763337971e+006 1.006763337968e+006 1.006763337968e+006 1.006763337968e+006 1.006763337965e+006 1.006763337971e+006 1.006763337970e+006 1.006763337963e+006 1.006724904242e+006 1.006724904244e+006 1.006724904243e+006 1.006724904242e+006 1.006724904241e+006 1.006724904232e+006 1.006724904249e+006 1.006724904248e+006 1.006724904240e+006 1.006709790750e+006 1.006709790744e+006 1.006709790753e+006 1.006709790746e+006 1.006709790747e+006 1.006709790748e+006 1.006709790744e+006 1.006709790746e+006 1.006709790754e+006 1.006659369624e+006 1.006659369620e+006 1.006659369615e+006 1.006659369618e+006 1.006659369620e+006 1.006659369617e+006 1.006659369619e+006 1.006659369614e+006 1.006659369618e+006 1.006638424500e+006 1.006638424495e+006 1.006638424489e+006 1.006638424496e+006 1.006638424495e+006 1.006638424499e+006 1.006638424496e+006 1.006638424497e+006 1.006638424495e+006 1.006591556289e+006 1.006591556293e+006 1.006591556295e+006 1.006591556292e+006 1.006591556294e+006 1.006591556287e+006 1.006591556292e+006 1.006591556290e+006 1.006591556293e+006 1.006551186959e+006 1.006551186958e+006 1.006551186955e+006 1.006551186956e+006 1.006551186957e+006 1.006551186953e+006 1.006551186958e+006 1.006551186956e+006 1.006551186958e+006 1.006518024451e+006 1.006518024462e+006 1.006518024454e+006 1.006518024460e+006 1.006518024459e+006 1.006518024461e+006 1.006518024465e+006 1.006518024456e+006 1.006518024460e+006 1.006454953166e+006 1.006454953163e+006 1.006454953163e+006 1.006454953155e+006 1.006454953160e+006 1.006454953168e+006 1.006454953160e+006 1.006454953166e+006 1.006454953166e+006 1.006426580414e+006 1.006426580405e+006 1.006426580406e+006 1.006426580410e+006 1.006426580408e+006 1.006426580402e+006 1.006426580406e+006 1.006426580405e+006 1.006426580413e+006 1.006362870722e+006 1.006362870718e+006 1.006362870717e+006 1.006362870728e+006 1.006362870719e+006 1.006362870720e+006 1.006362870722e+006 1.006362870717e+006 1.006362870726e+006 1.006317085994e+006 1.006317085997e+006 1.006317085997e+006 1.006317085995e+006 1.006317085995e+006 1.006317085994e+006 1.006317085992e+006 1.006317085992e+006 1.006317085991e+006 1.006262154620e+006 1.006262154622e+006 1.006262154626e+006 1.006262154624e+006 1.006262154625e+006 1.006262154629e+006 1.006262154622e+006 1.006262154622e+006 1.006262154622e+006 1.006201762689e+006 1.006201762681e+006 1.006201762683e+006 1.006201762684e+006 1.006201762689e+006 1.006201762687e+006 1.006201762687e+006 1.006201762688e+006 1.006201762683e+006 1.006151782488e+006 1.006151782487e+006 1.006151782484e+006 1.006151782486e+006 1.006151782488e+006 1.006151782486e+006 1.006151782491e+006 1.006151782489e+006 1.006151782483e+006 1.006079406035e+006 1.006079406047e+006 1.006079406042e+006 1.006079406043e+006 1.006079406043e+006 1.006079406041e+006 1.006079406040e+006 1.006079406040e+006 1.006079406036e+006 1.006026609368e+006 1.006026609361e+006 1.006026609367e+006 1.006026609365e+006 1.006026609366e+006 1.006026609363e+006 1.006026609363e+006 1.006026609369e+006 1.006026609360e+006 1.005958597672e+006 1.005958597669e+006 1.005958597668e+006 1.005958597673e+006 1.005958597671e+006 1.005958597665e+006 1.005958597670e+006 1.005958597665e+006 1.005958597672e+006 1.005886025316e+006 1.005886025311e+006 1.005886025308e+006 1.005886025308e+006 1.005886025312e+006 1.005886025311e+006 1.005886025310e+006 1.005886025312e+006 1.005886025317e+006 1.005830278674e+006 1.005830278674e+006 1.005830278671e+006 1.005830278673e+006 1.005830278672e+006 1.005830278672e+006 1.005830278671e+006 1.005830278669e+006 1.005830278672e+006 1.005746390843e+006 1.005746390838e+006 1.005746390840e+006 1.005746390843e+006 1.005746390841e+006 1.005746390837e+006 1.005746390838e+006 1.005746390838e+006 1.005746390835e+006 1.005680641470e+006 1.005680641474e+006 1.005680641475e+006 1.005680641480e+006 1.005680641480e+006 1.005680641473e+006 1.005680641479e+006 1.005680641477e+006 1.005680641478e+006 1.005610436135e+006 1.005610436132e+006 1.005610436130e+006 1.005610436133e+006 1.005610436136e+006 1.005610436133e+006 1.005610436133e+006 1.005610436130e+006 1.005610436135e+006 1.005522647744e+006 1.005522647739e+006 1.005522647742e+006 1.005522647742e+006 1.005522647742e+006 1.005522647739e+006 1.005522647741e+006 1.005522647741e+006 1.005522647735e+006 1.005458121109e+006 1.005458121111e+006 1.005458121111e+006 1.005458121112e+006 1.005458121115e+006 1.005458121109e+006 1.005458121117e+006 1.005458121110e+006 1.005458121111e+006 1.005372343240e+006 1.005372343240e+006 1.005372343239e+006 1.005372343238e+006 1.005372343243e+006 1.005372343241e+006 1.005372343240e+006 1.005372343242e+006 1.005372343238e+006 1.005289642063e+006 1.005289642065e+006 1.005289642064e+006 1.005289642063e+006 1.005289642067e+006 1.005289642063e+006 1.005289642066e+006 1.005289642064e+006 1.005289642065e+006 1.005214924287e+006 1.005214924292e+006 1.005214924293e+006 1.005214924294e+006 1.005214924294e+006 1.005214924294e+006 1.005214924295e+006 1.005214924294e+006 1.005214924289e+006 1.005124969565e+006 1.005124969560e+006 1.005124969555e+006 1.005124969560e+006 1.005124969559e+006 1.005124969560e+006 1.005124969556e+006 1.005124969558e+006 1.005124969558e+006 1.005038692445e+006 1.005038692441e+006 1.005038692441e+006 1.005038692438e+006 1.005038692442e+006 1.005038692439e+006 1.005038692440e+006 1.005038692439e+006 1.005038692445e+006 1.004961468690e+006 1.004961468690e+006 1.004961468687e+006 1.004961468690e+006 1.004961468687e+006 1.004961468689e+006 1.004961468689e+006 1.004961468688e+006 1.004961468689e+006 1.004863968293e+006 1.004863968296e+006 1.004863968295e+006 1.004863968296e+006 1.004863968296e+006 1.004863968294e+006 1.004863968295e+006 1.004863968295e+006 1.004863968295e+006 1.004778976474e+006 1.004778976475e+006 1.004778976476e+006 1.004778976477e+006 1.004778976480e+006 1.004778976473e+006 1.004778976482e+006 1.004778976475e+006 1.004778976477e+006 1.004689687887e+006 1.004689687891e+006 1.004689687889e+006 1.004689687887e+006 1.004689687891e+006 1.004689687890e+006 1.004689687888e+006 1.004689687895e+006 1.004689687892e+006 1.004594117430e+006 1.004594117437e+006 1.004594117434e+006 1.004594117433e+006 1.004594117433e+006 1.004594117433e+006 1.004594117432e+006 1.004594117433e+006 1.004594117433e+006 1.004509900958e+006 1.004509900960e+006 1.004509900958e+006 1.004509900961e+006 1.004509900957e+006 1.004509900957e+006 1.004509900956e+006 1.004509900955e+006 1.004509900957e+006 1.004412075988e+006 1.004412075988e+006 1.004412075991e+006 1.004412075991e+006 1.004412075986e+006 1.004412075990e+006 1.004412075990e+006 1.004412075987e+006 1.004412075990e+006 1.004309633933e+006 1.004309633933e+006 1.004309633932e+006 1.004309633932e+006 1.004309633934e+006 1.004309633933e+006 1.004309633934e+006 1.004309633931e+006 1.004309633930e+006 1.004229574632e+006 1.004229574635e+006 1.004229574635e+006 1.004229574632e+006 1.004229574634e+006 1.004229574633e+006 1.004229574636e+006 1.004229574635e+006 1.004229574632e+006 1.004123714109e+006 1.004123714112e+006 1.004123714112e+006 1.004123714113e+006 1.004123714112e+006 1.004123714111e+006 1.004123714110e+006 1.004123714111e+006 1.004123714115e+006 1.004029192039e+006 1.004029192037e+006 1.004029192038e+006 1.004029192038e+006 1.004029192036e+006 1.004029192037e+006 1.004029192039e+006 1.004029192038e+006 1.004029192037e+006 1.003934253940e+006 1.003934253938e+006 1.003934253936e+006 1.003934253936e+006 1.003934253932e+006 1.003934253938e+006 1.003934253938e+006 1.003934253938e+006 1.003934253935e+006 1.003831034936e+006 1.003831034938e+006 1.003831034939e+006 1.003831034935e+006 1.003831034931e+006 1.003831034937e+006 1.003831034935e+006 1.003831034936e+006 1.003831034935e+006 1.003734608103e+006 1.003734608107e+006 1.003734608109e+006 1.003734608108e+006 1.003734608108e+006 1.003734608106e+006 1.003734608109e+006 1.003734608108e+006 1.003734608107e+006 1.003639275953e+006 1.003639275951e+006 1.003639275952e+006 1.003639275954e+006 1.003639275954e+006 1.003639275952e+006 1.003639275953e+006 1.003639275956e+006 1.003639275952e+006 1.003535351770e+006 1.003535351772e+006 1.003535351775e+006 1.003535351772e+006 1.003535351773e+006 1.003535351770e+006 1.003535351775e+006 1.003535351774e+006 1.003535351774e+006 1.003433180473e+006 1.003433180474e+006 1.003433180474e+006 1.003433180473e+006 1.003433180472e+006 1.003433180474e+006 1.003433180473e+006 1.003433180475e+006 1.003433180475e+006 1.003335792108e+006 1.003335792109e+006 1.003335792110e+006 1.003335792109e+006 1.003335792109e+006 1.003335792110e+006 1.003335792109e+006 1.003335792110e+006 1.003335792109e+006 1.003248443979e+006 1.003248443981e+006 1.003248443980e+006 1.003248443979e+006 1.003248443982e+006 1.003248443980e+006 1.003248443983e+006 1.003248443980e+006 1.003248443980e+006 1.003116752168e+006 1.003116752167e+006 1.003116752166e+006 1.003116752164e+006 1.003116752162e+006 1.003116752162e+006 1.003116752163e+006 1.003116752162e+006 1.003116752163e+006 1.003035157108e+006 1.003035157109e+006 1.003035157109e+006 1.003035157111e+006 1.003035157115e+006 1.003035157116e+006 1.003035157114e+006 1.003035157115e+006 1.003035157114e+006 1.002945460510e+006 1.002945460512e+006 1.002945460512e+006 1.002945460505e+006 1.002945460502e+006 1.002945460500e+006 1.002945460498e+006 1.002945460499e+006 1.002945460496e+006 1.002837528426e+006 1.002837528428e+006 1.002837528431e+006 1.002837528439e+006 1.002837528444e+006 1.002837528448e+006 1.002837528448e+006 1.002837528451e+006 1.002837528450e+006 1.002689374434e+006 1.002689374431e+006 1.002689374431e+006 1.002689374415e+006 1.002689374410e+006 1.002689374406e+006 1.002689374407e+006 1.002689374404e+006 1.002689374404e+006 1.002697917198e+006 1.002697917201e+006 1.002697917194e+006 1.002697917217e+006 1.002697917221e+006 1.002697917223e+006 1.002697917225e+006 1.002697917227e+006 1.002697917236e+006 1.002457195751e+006 1.002457195748e+006 1.002457195752e+006 1.002457195732e+006 1.002457195730e+006 1.002457195725e+006 1.002457195722e+006 1.002457195724e+006 1.002457195724e+006 1.002492656731e+006 1.002492656735e+006 1.002492656733e+006 1.002492656735e+006 1.002492656739e+006 1.002492656738e+006 1.002492656741e+006 1.002492656740e+006 1.002492656744e+006 1.002301745315e+006 1.002301745316e+006 1.002301745310e+006 1.002301745321e+006 1.002301745315e+006 1.002301745314e+006 1.002301745312e+006 1.002301745316e+006 1.002301745313e+006 1.002229567377e+006 1.002229567378e+006 1.002229567374e+006 1.002229567378e+006 1.002229567373e+006 1.002229567374e+006 1.002229567372e+006 1.002229567371e+006 1.002229567373e+006 1.002146030740e+006 1.002146030743e+006 1.002146030741e+006 1.002146030743e+006 1.002146030741e+006 1.002146030740e+006 1.002146030740e+006 1.002146030739e+006 1.002146030738e+006 1.002032965206e+006 1.002032965204e+006 1.002032965205e+006 1.002032965204e+006 1.002032965204e+006 1.002032965204e+006 1.002032965204e+006 1.002032965202e+006 1.002032965204e+006 1.001944329798e+006 1.001944329798e+006 1.001944329798e+006 1.001944329798e+006 1.001944329798e+006 1.001944329799e+006 1.001944329798e+006 1.001944329798e+006 1.001944329797e+006 1.001842088229e+006 1.001842088228e+006 1.001842088228e+006 1.001842088229e+006 1.001842088228e+006 1.001842088227e+006 1.001842088228e+006 1.001842088227e+006 1.001842088226e+006 1.001744008717e+006 1.001744008717e+006 1.001744008717e+006 1.001744008716e+006 1.001744008717e+006 1.001744008716e+006 1.001744008715e+006 1.001744008716e+006 1.001744008715e+006 1.001672662210e+006 1.001672662210e+006 1.001672662211e+006 1.001672662210e+006 1.001672662209e+006 1.001672662210e+006 1.001672662209e+006 1.001672662210e+006 1.001672662208e+006 1.001558977144e+006 1.001558977144e+006 1.001558977144e+006 1.001558977144e+006 1.001558977144e+006 1.001558977144e+006 1.001558977144e+006 1.001558977143e+006 1.001558977147e+006 1.001476976882e+006 1.001476976883e+006 1.001476976883e+006 1.001476976880e+006 1.001476976880e+006 1.001476976881e+006 1.001476976881e+006 1.001476976881e+006 1.001476976880e+006 1.001397997503e+006 1.001397997500e+006 1.001397997503e+006 1.001397997502e+006 1.001397997502e+006 1.001397997502e+006 1.001397997501e+006 1.001397997503e+006 1.001397997503e+006 1.001296514051e+006 1.001296514052e+006 1.001296514050e+006 1.001296514051e+006 1.001296514050e+006 1.001296514050e+006 1.001296514050e+006 1.001296514051e+006 1.001296514051e+006 1.001231516019e+006 1.001231516019e+006 1.001231516020e+006 1.001231516019e+006 1.001231516020e+006 1.001231516020e+006 1.001231516018e+006 1.001231516020e+006 1.001231516020e+006 1.001153782367e+006 1.001153782367e+006 1.001153782368e+006 1.001153782367e+006 1.001153782367e+006 1.001153782367e+006 1.001153782367e+006 1.001153782366e+006 1.001153782366e+006 1.001093209469e+006 1.001093209469e+006 1.001093209470e+006 1.001093209469e+006 1.001093209469e+006 1.001093209469e+006 1.001093209469e+006 1.001093209468e+006 1.001093209468e+006 1.001035670736e+006 1.001035670737e+006 1.001035670736e+006 1.001035670736e+006 1.001035670736e+006 1.001035670736e+006 1.001035670736e+006 1.001035670735e+006 1.001035670735e+006 1.000978131947e+006 1.000978131947e+006 1.000978131947e+006 1.000978131947e+006 1.000978131947e+006 1.000978131946e+006 1.000978131946e+006 1.000978131946e+006 1.000978131946e+006 1.000920593474e+006 1.000920593474e+006 1.000920593474e+006 1.000920593474e+006 1.000920593474e+006 1.000920593474e+006 1.000920593474e+006 1.000920593473e+006 1.000920593473e+006 1.000863055250e+006 1.000863055250e+006 1.000863055250e+006 1.000863055250e+006 1.000863055250e+006 1.000863055250e+006 1.000863055250e+006 1.000863055249e+006 1.000863055249e+006 1.000805517266e+006 1.000805517266e+006 1.000805517266e+006 1.000805517265e+006 1.000805517265e+006 1.000805517265e+006 1.000805517265e+006 1.000805517265e+006 1.000805517265e+006 1.000747979501e+006 1.000747979501e+006 1.000747979501e+006 1.000747979501e+006 1.000747979501e+006 1.000747979501e+006 1.000747979500e+006 1.000747979501e+006 1.000747979501e+006 1.000690441936e+006 1.000690441936e+006 1.000690441937e+006 1.000690441937e+006 1.000690441937e+006 1.000690441937e+006 1.000690441937e+006 1.000690441936e+006 1.000690441937e+006 1.000632904554e+006 1.000632904555e+006 1.000632904555e+006 1.000632904555e+006 1.000632904555e+006 1.000632904555e+006 1.000632904555e+006 1.000632904555e+006 1.000632904555e+006 1.000575367336e+006 1.000575367336e+006 1.000575367336e+006 1.000575367336e+006 1.000575367336e+006 1.000575367336e+006 1.000575367336e+006 1.000575367336e+006 1.000575367336e+006 1.000517830263e+006 1.000517830263e+006 1.000517830262e+006 1.000517830263e+006 1.000517830263e+006 1.000517830263e+006 1.000517830263e+006 1.000517830263e+006 1.000517830263e+006 1.000460293315e+006 1.000460293315e+006 1.000460293315e+006 1.000460293315e+006 1.000460293315e+006 1.000460293315e+006 1.000460293316e+006 1.000460293315e+006 1.000460293315e+006 1.000402756475e+006 1.000402756474e+006 1.000402756474e+006 1.000402756475e+006 1.000402756475e+006 1.000402756475e+006 1.000402756475e+006 1.000402756475e+006 1.000402756475e+006 1.000345219723e+006 1.000345219723e+006 1.000345219722e+006 1.000345219723e+006 1.000345219723e+006 1.000345219723e+006 1.000345219723e+006 1.000345219723e+006 1.000345219723e+006 1.000287683040e+006 1.000287683040e+006 1.000287683040e+006 1.000287683040e+006 1.000287683040e+006 1.000287683040e+006 1.000287683040e+006 1.000287683040e+006 1.000287683040e+006 1.000230146407e+006 1.000230146407e+006 1.000230146407e+006 1.000230146407e+006 1.000230146407e+006 1.000230146407e+006 1.000230146407e+006 1.000230146407e+006 1.000230146407e+006 1.000172609806e+006 1.000172609806e+006 1.000172609806e+006 1.000172609806e+006 1.000172609806e+006 1.000172609806e+006 1.000172609806e+006 1.000172609806e+006 1.000172609806e+006 1.000115073217e+006 1.000115073217e+006 1.000115073217e+006 1.000115073217e+006 1.000115073217e+006 1.000115073217e+006 1.000115073217e+006 1.000115073217e+006 1.000115073217e+006 1.000057536621e+006 1.000057536621e+006 1.000057536621e+006 1.000057536621e+006 1.000057536621e+006 1.000057536621e+006 1.000057536621e+006 1.000057536621e+006 1.000057536621e+006 1.000000000000e+006 1.000000000000e+006 1.000000000000e+006 1.000000000000e+006 1.000000000000e+006 1.000000000000e+006 1.000000000000e+006 1.000000000000e+006 1.000000000000e+006 
        </DataArray>
        <DataArray type="Float64" Name="MOLAR_FRACTION" format="ascii">