<?xml version="1.0"?>
<VTKFile type="UnstructuredGrid" version="0.1" byte_order="LittleEndian">
  <UnstructuredGrid>
    <Piece NumberOfPoints="909" NumberOfCells="800">
      <Points>
        <DataArray type="Float64" NumberOfComponents="3" format="ascii">
          0.000000000000e+000 0.000000000000e+000 0.000000000000e+000
          2.000000000000e+000 0.000000000000e+000 0.000000000000e+000
          2.000000000000e+000 2.500000000000e+000 0.000000000000e+000
          0.000000000000e+000 2.500000000000e+000 0.000000000000e+000
          2.000000000000e+000 5.000000000000e+000 0.000000000000e+000
          0.000000000000e+000 5.000000000000e+000 0.000000000000e+000
          2.000000000000e+000 7.500000000000e+000 0.000000000000e+000
          0.000000000000e+000 7.500000000000e+000 0.000000000000e+000
          2.000000000000e+000 1.000000000000e+001 0.000000000000e+000
          0.000000000000e+000 1.000000000000e+001 0.000000000000e+000
          2.000000000000e+000 1.250000000000e+001 0.000000000000e+000
          0.000000000000e+000 1.250000000000e+001 0.000000000000e+000
          2.000000000000e+000 1.500000000000e+001 0.000000000000e+000
          0.000000000000e+000 1.500000000000e+001 0.000000000000e+000
          2.000000000000e+000 1.750000000000e+001 0.000000000000e+000
          0.000000000000e+000 1.750000000000e+001 0.000000000000e+000
          2.000000000000e+000 2.000000000000e+001 0.000000000000e+000
          0.000000000000e+000 2.000000000000e+001 0.000000000000e+000
          4.000000000000e+000 0.000000000000e+000 0.000000000000e+000
          4.000000000000e+000 2.500000000000e+000 0.000000000000e+000
          4.000000000000e+000 5.000000000000e+000 0.000000000000e+000
          4.000000000000e+000 7.500000000000e+000 0.000000000000e+000
          4.000000000000e+000 1.000000000000e+001 0.000000000000e+000
          4.000000000000e+000 1.250000000000e+001 0.000000000000e+000
          4.000000000000e+000 1.500000000000e+001 0.000000000000e+000
          4.000000000000e+000 1.750000000000e+001 0.000000000000e+000
          4.000000000000e+000 2.000000000000e+001 0.000000000000e+000
          6.000000000000e+000 0.000000000000e+000 0.000000000000e+000
          6.000000000000e+000 2.500000000000e+000 0.000000000000e+000
          6.000000000000e+000 5.000000000000e+000 0.000000000000e+000
          6.000000000000e+000 7.500000000000e+000 0.000000000000e+000
          6.000000000000e+000 1.000000000000e+001 0.000000000000e+000
          6.000000000000e+000 1.250000000000e+001 0.000000000000e+000
          6.000000000000e+000 1.500000000000e+001 0.000000000000e+000
          6.000000000000e+000 1.750000000000e+001 0.000000000000e+000
          6.000000000000e+000 2.000000000000e+001 0.000000000000e+000
          8.000000000000e+000 0.000000000000e+000 0.000000000000e+000
          8.000000000000e+000 2.500000000000e+000 0.000000000000e+000
          8.000000000000e+000 5.000000000000e+000 0.000000000000e+000
          8.000000000000e+000 7.500000000000e+000 0.000000000000e+000
          8.000000000000e+000 1.000000000000e+001 0.000000000000e+000
          8.000000000000e+000 1.250000000000e+001 0.000000000000e+000
          8.000000000000e+000 1.500000000000e+001 0.000000000000e+000
          8.000000000000e+000 1.750000000000e+001 0.000000000000e+000
          8.000000000000e+000 2.000000000000e+001 0.000000000000e+000
          1.000000000000e+001 0.000000000000e+000 0.000000000000e+000
          1.000000000000e+001 2.500000000000e+000 0.000000000000e+000
          1.000000000000e+001 5.000000000000e+000 0.000000000000e+000
          1.000000000000e+001 7.500000000000e+000 0.000000000000e+000
          1.000000000000e+001 1.000000000000e+001 0.000000000000e+000
          1.000000000000e+001 1.250000000000e+001 0.000000000000e+000
          1.000000000000e+001 1.500000000000e+001 0.000000000000e+000
          1.000000000000e+001 1.750000000000e+001 0.000000000000e+000
          1.000000000000e+001 2.000000000000e+001 0.000000000000e+000
          1.200000000000e+001 0.000000000000e+000 0.000000000000e+000
          1.200000000000e+001 2.500000000000e+000 0.000000000000e+000
          1.200000000000e+001 5.000000000000e+000 0.000000000000e+000
          1.200000000000e+001 7.500000000000e+000 0.000000000000e+000
          1.200000000000e+001 1.000000000000e+001 0.000000000000e+000
          1.200000000000e+001 1.250000000000e+001 0.000000000000e+000
          1.200000000000e+001 1.500000000000e+001 0.000000000000e+000
          1.200000000000e+001 1.750000000000e+001 0.000000000000e+000
          1.200000000000e+001 2.000000000000e+001 0.000000000000e+000
          1.400000000000e+001 0.000000000000e+000 0.000000000000e+000
          1.400000000000e+001 2.500000000000e+000 0.000000000000e+000
          1.400000000000e+001 5.000000000000e+000 0.000000000000e+000
          1.400000000000e+001 7.500000000000e+000 0.000000000000e+000
          1.400000000000e+001 1.000000000000e+001 0.000000000000e+000
          1.400000000000e+001 1.250000000000e+001 0.000000000000e+000
          1.400000000000e+001 1.500000000000e+001 0.000000000000e+000
          1.400000000000e+001 1.750000000000e+001 0.000000000000e+000
          1.400000000000e+001 2.000000000000e+001 0.000000000000e+000
          1.600000000000e+001 0.000000000000e+000 0.000000000000e+000
          1.600000000000e+001 2.500000000000e+000 0.000000000000e+000
          1.600000000000e+001 5.000000000000e+000 0.000000000000e+000
          1.600000000000e+001 7.500000000000e+000 0.000000000000e+000
          1.600000000000e+001 1.000000000000e+001 0.000000000000e+000
          1.600000000000e+001 1.250000000000e+001 0.000000000000e+000
          1.600000000000e+001 1.500000000000e+001 0.000000000000e+000
          1.600000000000e+001 1.750000000000e+001 0.000000000000e+000
          1.600000000000e+001 2.000000000000e+001 0.000000000000e+000
          1.800000000000e+001 0.000000000000e+000 0.000000000000e+000
          1.800000000000e+001 2.500000000000e+000 0.000000000000e+000
          1.800000000000e+001 5.000000000000e+000 0.000000000000e+000
          1.800000000000e+001 7.500000000000e+000 0.000000000000e+000
          1.800000000000e+001 1.000000000000e+001 0.000000000000e+000
          1.800000000000e+001 1.250000000000e+001 0.000000000000e+000
          1.800000000000e+001 1.500000000000e+001 0.000000000000e+000
          1.800000000000e+001 1.750000000000e+001 0.000000000000e+000
          1.800000000000e+001 2.000000000000e+001 0.000000000000e+000
          2.000000000000e+001 0.000000000000e+000 0.000000000000e+000
          2.000000000000e+001 2.500000000000e+000 0.000000000000e+000
          2.000000000000e+001 5.000000000000e+000 0.000000000000e+000
          2.000000000000e+001 7.500000000000e+000 0.000000000000e+000
          2.000000000000e+001 1.000000000000e+001 0.000000000000e+000
          2.000000000000e+001 1.250000000000e+001 0.000000000000e+000
          2.000000000000e+001 1.500000000000e+001 0.000000000000e+000
          2.000000000000e+001 1.750000000000e+001 0.000000000000e+000
          2.000000000000e+001 2.000000000000e+001 0.000000000000e+000
          2.200000000000e+001 0.000000000000e+000 0.000000000000e+000
          2.200000000000e+001 2.500000000000e+000 0.000000000000e+000
          2.200000000000e+001 5.000000000000e+000 0.000000000000e+000
          2.200000000000e+001 7.500000000000e+000 0.000000000000e+000
          2.200000000000e+001 1.000000000000e+001 0.000000000000e+000
          2.200000000000e+001 1.250000000000e+001 0.000000000000e+000
          2.200000000000e+001 1.500000000000e+001 0.000000000000e+000
          2.200000000000e+001 1.750000000000e+001 0.000000000000e+000
          2.200000000000e+001 2.000000000000e+001 0.000000000000e+000
          2.400000000000e+001 0.000000000000e+000 0.000000000000e+000
          2.400000000000e+001 2.500000000000e+000 0.000000000000e+000
          2.400000000000e+001 5.000000000000e+000 0.000000000000e+000
          2.400000000000e+001 7.500000000000e+000 0.000000000000e+000
          2.400000000000e+001 1.000000000000e+001 0.000000000000e+000
          2.400000000000e+001 1.250000000000e+001 0.000000000000e+000
          2.400000000000e+001 1.500000000000e+001 0.000000000000e+000
          2.400000000000e+001 1.750000000000e+001 0.000000000000e+000
          2.400000000000e+001 2.000000000000e+001 0.000000000000e+000
          2.600000000000e+001 0.000000000000e+000 0.000000000000e+000
          2.600000000000e+001 2.500000000000e+000 0.000000000000e+000
          2.600000000000e+001 5.000000000000e+000 0.000000000000e+000
          2.600000000000e+001 7.500000000000e+000 0.000000000000e+000
          2.600000000000e+001 1.000000000000e+001 0.000000000000e+000
          2.600000000000e+001 1.250000000000e+001 0.000000000000e+000
          2.600000000000e+001 1.500000000000e+001 0.000000000000e+000
          2.600000000000e+001 1.750000000000e+001 0.000000000000e+000
          2.600000000000e+001 2.000000000000e+001 0.000000000000e+000
          2.800000000000e+001 0.000000000000e+000 0.000000000000e+000
          2.800000000000e+001 2.500000000000e+000 0.000000000000e+000
          2.800000000000e+001 5.000000000000e+000 0.000000000000e+000
          2.800000000000e+001 7.500000000000e+000 0.000000000000e+000
          2.800000000000e+001 1.000000000000e+001 0.000000000000e+000
          2.800000000000e+001 1.250000000000e+001 0.000000000000e+000
          2.800000000000e+001 1.500000000000e+001 0.000000000000e+000
          2.800000000000e+001 1.750000000000e+001 0.000000000000e+000
          2.800000000000e+001 2.000000000000e+001 0.000000000000e+000
          3.000000000000e+001 0.000000000000e+000 0.000000000000e+000
          3.000000000000e+001 2.500000000000e+000 0.000000000000e+000
          3.000000000000e+001 5.000000000000e+000 0.000000000000e+000
          3.000000000000e+001 7.500000000000e+000 0.000000000000e+000
[...]
      <PointData Scalars="LIQUID_PRESSURE">
        <DataArray type="Float64" Name="LIQUID_PRESSURE" format="ascii">
          1.100980395983e+006 1.100939379405e+006 1.100939379421e+006 1.100980395882e+006 1.100939379440e+006 1.100980395800e+006 1.100939379385e+006 1.100980395866e+006 1.100939379378e+006 1.100980395798e+006 1.100939379355e+006 1.100980395576e+006 1.100939379267e+006 1.100980395410e+006 1.100939379217e+006 1.100980395261e+006 1.100939379221e+006 1.100980395161e+006 1.100761305063e+006 1.100761305121e+006 1.100761305155e+006 1.100761305100e+006 1.100761305100e+006 1.100761305146e+006 1.100761305131e+006 1.100761305141e+006 1.100761305168e+006 1.100490256131e+006 1.100490256176e+006 1.100490256211e+006 1.100490256180e+006 1.100490256192e+006 1.100490256236e+006 1.100490256252e+006 1.100490256273e+006 1.100490256286e+006 1.100135736879e+006 1.100135736911e+006 1.100135736946e+006 1.100135736925e+006 1.100135736936e+006 1.100135736971e+006 1.100135736997e+006 1.100135737013e+006 1.100135737022e+006 1.099672031147e+006 1.099672031168e+006 1.099672031189e+006 1.099672031188e+006 1.099672031189e+006 1.099672031225e+006 1.099672031248e+006 1.099672031259e+006 1.099672031271e+006 1.099126109014e+006 1.099126109029e+006 1.099126109045e+006 1.099126109047e+006 1.099126109052e+006 1.099126109078e+006 1.099126109098e+006 1.099126109112e+006 1.099126109116e+006 1.098483082155e+006 1.098483082161e+006 1.098483082168e+006 1.098483082168e+006 1.098483082178e+006 1.098483082189e+006 1.098483082209e+006 1.098483082219e+006 1.098483082226e+006 1.097720658103e+006 1.097720658102e+006 1.097720658105e+006 1.097720658100e+006 1.097720658107e+006 1.097720658116e+006 1.097720658127e+006 1.097720658140e+006 1.097720658138e+006 1.096849095884e+006 1.096849095880e+006 1.096849095880e+006 1.096849095875e+006 1.096849095874e+006 1.096849095876e+006 1.096849095885e+006 1.096849095893e+006 1.096849095895e+006 1.095865877689e+006 1.095865877690e+006 1.095865877686e+006 1.095865877678e+006 1.095865877677e+006 1.095865877677e+006 1.095865877679e+006 1.095865877688e+006 1.095865877688e+006 1.094767544480e+006 1.094767544483e+006 1.094767544478e+006 1.094767544473e+006 1.094767544469e+006 1.094767544466e+006 1.094767544475e+006 1.094767544474e+006 1.094767544477e+006 1.093569808449e+006 1.093569808450e+006 1.093569808447e+006 1.093569808445e+006 1.093569808440e+006 1.093569808442e+006 1.093569808439e+006 1.093569808442e+006 1.093569808442e+006 1.092295354707e+006 1.092295354706e+006 1.092295354710e+006 1.092295354708e+006 1.092295354709e+006 1.092295354706e+006 1.092295354704e+006 1.092295354702e+006 1.092295354703e+006 1.091044333373e+006 1.091044333377e+006 1.091044333374e+006 1.091044333380e+006 1.091044333377e+006 1.091044333379e+006 1.091044333377e+006 1.091044333377e+006 1.091044333374e+006 1.089982205510e+006 1.089982205512e+006 1.089982205515e+006 1.089982205515e+006 1.089982205519e+006 1.089982205516e+006 1.089982205519e+006 1.089982205516e+006 1.089982205514e+006 1.088920217609e+006 1.088920217606e+006 1.088920217608e+006 1.088920217610e+006 1.088920217611e+006 1.088920217616e+006 1.088920217614e+006 1.088920217615e+006 1.088920217613e+006 1.087858366450e+006 1.087858366451e+006 1.087858366451e+006 1.087858366455e+006 1.087858366457e+006 1.087858366459e+006 1.087858366462e+006 1.087858366464e+006 1.087858366460e+006 1.086796648839e+006 1.086796648839e+006 1.086796648839e+006 1.086796648842e+006 1.086796648845e+006 1.086796648849e+006 1.086796648848e+006 1.086796648850e+006 1.086796648850e+006 1.085735061864e+006 1.085735061863e+006 1.085735061862e+006 1.085735061864e+006 1.085735061867e+006 1.085735061868e+006 1.085735061869e+006 1.085735061868e+006 1.085735061870e+006 1.084673602916e+006 1.084673602913e+006 1.084673602915e+006 1.084673602915e+006 1.084673602916e+006 1.084673602919e+006 1.084673602917e+006 1.084673602917e+006 1.084673602918e+006 1.083612269629e+006 1.083612269628e+006 1.083612269630e+006 1.083612269628e+006 1.083612269628e+006 1.083612269628e+006 1.083612269627e+006 1.083612269628e+006 1.083612269626e+006 1.082551059804e+006 1.082551059802e+006 1.082551059803e+006 1.082551059804e+006 1.082551059802e+006 1.082551059803e+006 1.082551059801e+006 1.082551059802e+006 1.082551059801e+006 1.081489971350e+006 1.081489971350e+006 1.081489971349e+006 1.081489971349e+006 1.081489971347e+006 1.081489971348e+006 1.081489971346e+006 1.081489971346e+006 1.081489971346e+006 1.080429002226e+006 1.080429002224e+006 1.080429002225e+006 1.080429002223e+006 1.080429002223e+006 1.080429002221e+006 1.080429002221e+006 1.080429002221e+006 1.080429002220e+006 1.079368150424e+006 1.079368150423e+006 1.079368150424e+006 1.079368150425e+006 1.079368150423e+006 1.079368150422e+006 1.079368150421e+006 1.079368150421e+006 1.079368150420e+006 1.078307413946e+006 1.078307413945e+006 1.078307413946e+006 1.078307413946e+006 1.078307413945e+006 1.078307413945e+006 1.078307413943e+006 1.078307413944e+006 1.078307413942e+006 1.077246790786e+006 1.077246790786e+006 1.077246790787e+006 1.077246790787e+006 1.077246790787e+006 1.077246790786e+006 1.077246790785e+006 1.077246790786e+006 1.077246790785e+006 1.076186278943e+006 1.076186278944e+006 1.076186278943e+006 1.076186278944e+006 1.076186278943e+006 1.076186278943e+006 1.076186278943e+006 1.076186278943e+006 1.076186278943e+006 1.075125876405e+006 1.075125876404e+006 1.075125876405e+006 1.075125876404e+006 1.075125876404e+006 1.075125876404e+006 1.075125876405e+006 1.075125876405e+006 1.075125876405e+006 1.074065581148e+006 1.074065581148e+006 1.074065581148e+006 1.074065581148e+006 1.074065581148e+006 1.074065581148e+006 1.074065581149e+006 1.074065581150e+006 1.074065581151e+006 1.073005391151e+006 1.073005391151e+006 1.073005391151e+006 1.073005391151e+006 1.073005391151e+006 1.073005391151e+006 1.073005391153e+006 1.073005391153e+006 1.073005391154e+006 1.071945304380e+006 1.071945304380e+006 1.071945304380e+006 1.071945304379e+006 1.071945304380e+006 1.071945304380e+006 1.071945304381e+006 1.071945304382e+006 1.071945304382e+006 1.070885318799e+006 1.070885318798e+006 1.070885318798e+006 1.070885318798e+006 1.070885318798e+006 1.070885318799e+006 1.070885318799e+006 1.070885318800e+006 1.070885318799e+006 1.069825432365e+006 1.069825432365e+006 1.069825432365e+006 1.069825432364e+006 1.069825432365e+006 1.069825432365e+006 1.069825432365e+006 1.069825432365e+006 1.069825432365e+006 1.068765643037e+006 1.068765643037e+006 1.068765643037e+006 1.068765643037e+006 1.068765643036e+006 1.068765643037e+006 1.068765643037e+006 1.068765643036e+006 1.068765643036e+006 1.067705948767e+006 1.067705948767e+006 1.067705948767e+006 1.067705948767e+006 1.067705948767e+006 1.067705948767e+006 1.067705948767e+006 1.067705948767e+006 1.067705948766e+006 1.066646347513e+006 1.066646347513e+006 1.066646347513e+006 1.066646347513e+006 1.066646347513e+006 1.066646347513e+006 1.066646347513e+006 1.066646347513e+006 1.066646347513e+006 1.065586837231e+006 1.065586837231e+006 1.065586837231e+006 1.065586837231e+006 1.065586837231e+006 1.065586837231e+006 1.065586837231e+006 1.065586837230e+006 1.065586837230e+006 1.064527415878e+006 1.064527415878e+006 1.064527415878e+006 1.064527415878e+006 1.064527415878e+006 1.064527415878e+006 1.064527415877e+006 1.064527415877e+006 1.064527415877e+006 1.063468081419e+006 1.063468081419e+006 1.063468081419e+006 1.063468081419e+006 1.063468081419e+006 1.063468081419e+006 1.063468081419e+006 1.063468081419e+006 1.063468081419e+006 1.062408831820e+006 1.062408831820e+006 1.062408831820e+006 1.062408831820e+006 1.062408831820e+006 1.062408831820e+006 1.062408831820e+006 1.062408831820e+006 1.062408831820e+006 1.061349665052e+006 1.061349665052e+006 1.061349665052e+006 1.061349665052e+006 1.061349665052e+006 1.061349665052e+006 1.061349665052e+006 1.061349665052e+006 1.061349665052e+006 1.060290579098e+006 1.060290579098e+006 1.060290579098e+006 1.060290579098e+006 1.060290579098e+006 1.060290579098e+006 1.060290579098e+006 1.060290579098e+006 1.060290579098e+006 1.059231571948e+006 1.059231571948e+006 1.059231571948e+006 1.059231571949e+006 1.059231571949e+006 1.059231571949e+006 1.059231571949e+006 1.059231571949e+006 1.059231571949e+006 1.058172641602e+006 1.058172641602e+006 1.058172641602e+006 1.058172641602e+006 1.058172641602e+006 1.058172641602e+006 1.058172641602e+006 1.058172641602e+006 1.058172641602e+006 1.057113786069e+006 1.057113786069e+006 1.057113786069e+006 1.057113786069e+006 1.057113786069e+006 1.057113786069e+006 1.057113786069e+006 1.057113786069e+006 1.057113786069e+006 1.056055003374e+006 1.056055003374e+006 1.056055003374e+006 1.056055003374e+006 1.056055003374e+006 1.056055003374e+006 1.056055003374e+006 1.056055003374e+006 1.056055003374e+006 1.054996291553e+006 1.054996291553e+006 1.054996291553e+006 1.054996291553e+006 1.054996291553e+006 1.054996291553e+006 1.054996291553e+006 1.054996291553e+006 1.054996291553e+006 1.053937648660e+006 1.053937648660e+006 1.053937648660e+006 1.053937648660e+006 1.053937648660e+006 1.053937648660e+006 1.053937648660e+006 1.053937648660e+006 1.053937648660e+006 1.052879072764e+006 1.052879072764e+006 1.052879072764e+006 1.052879072764e+006 1.052879072764e+006 1.052879072764e+006 1.052879072764e+006 1.052879072764e+006 1.052879072764e+006 1.051820561951e+006 1.051820561951e+006 1.051820561952e+006 1.051820561952e+006 1.051820561952e+006 1.051820561952e+006 1.051820561952e+006 1.051820561952e+006 1.051820561952e+006 1.050762114328e+006 1.050762114328e+006 1.050762114328e+006 1.050762114328e+006 1.050762114328e+006 1.050762114328e+006 1.050762114328e+006 1.050762114328e+006 1.050762114328e+006 1.049703728019e+006 1.049703728019e+006 1.049703728019e+006 1.049703728019e+006 1.049703728019e+006 1.049703728019e+006 1.049703728019e+006 1.049703728019e+006 1.049703728019e+006 1.048645401169e+006 1.048645401169e+006 1.048645401168e+006 1.048645401169e+006 1.048645401168e+006 1.048645401168e+006 1.048645401168e+006 1.048645401168e+006 1.048645401168e+006 1.047587131945e+006 1.047587131945e+006 1.047587131945e+006 1.047587131945e+006 1.047587131945e+006 1.047587131945e+006 1.047587131945e+006 1.047587131945e+006 1.047587131945e+006 1.046528918538e+006 1.046528918538e+006 1.046528918538e+006 1.046528918538e+006 1.046528918538e+006 1.046528918538e+006 1.046528918538e+006 1.046528918538e+006 1.046528918538e+006 1.045470759162e+006 1.045470759162e+006 1.045470759162e+006 1.045470759162e+006 1.045470759162e+006 1.045470759162e+006 1.045470759162e+006 1.045470759162e+006 1.045470759162e+006 1.044412652053e+006 1.044412652053e+006 1.044412652053e+006 1.044412652053e+006 1.044412652053e+006 1.044412652053e+006 1.044412652053e+006 1.044412652053e+006 1.044412652053e+006 1.043354595475e+006 1.043354595475e+006 1.043354595475e+006 1.043354595475e+006 1.043354595475e+006 1.043354595475e+006 1.043354595475e+006 1.043354595475e+006 1.043354595475e+006 1.042296587716e+006 1.042296587716e+006 1.042296587716e+006 1.042296587716e+006 1.042296587716e+006 1.042296587716e+006 1.042296587716e+006 1.042296587716e+006 1.042296587716e+006 1.041238627090e+006 1.041238627090e+006 1.041238627090e+006 1.041238627090e+006 1.041238627090e+006 1.041238627090e+006 1.041238627090e+006 1.041238627090e+006 1.041238627090e+006 1.040180711939e+006 1.040180711939e+006 1.040180711939e+006 1.040180711939e+006 1.040180711938e+006 1.040180711938e+006 1.040180711938e+006 1.040180711938e+006 1.040180711938e+006 1.039122840630e+006 1.039122840630e+006 1.039122840630e+006 1.039122840630e+006 1.039122840630e+006 1.039122840630e+006 1.039122840630e+006 1.039122840630e+006 1.039122840630e+006 1.038065011562e+006 1.038065011562e+006 1.038065011562e+006 1.038065011562e+006 1.038065011562e+006 1.038065011562e+006 1.038065011562e+006 1.038065011562e+006 1.038065011562e+006 1.037007223157e+006 1.037007223157e+006 1.037007223157e+006 1.037007223157e+006 1.037007223157e+006 1.037007223157e+006 1.037007223157e+006 1.037007223157e+006 1.037007223157e+006 1.035949473870e+006 1.035949473870e+006 1.035949473870e+006 1.035949473870e+006 1.035949473870e+006 1.035949473869e+006 1.035949473869e+006 1.035949473869e+006 1.035949473869e+006 1.034891762179e+006 1.034891762179e+006 1.034891762179e+006 1.034891762179e+006 1.034891762179e+006 1.034891762179e+006 1.034891762179e+006 1.034891762179e+006 1.034891762179e+006 1.033834086596e+006 1.033834086596e+006 1.033834086596e+006 1.033834086596e+006 1.033834086596e+006 1.033834086596e+006 1.033834086596e+006 1.033834086596e+006 1.033834086596e+006 1.032776445660e+006 1.032776445660e+006 1.032776445660e+006 1.032776445659e+006 1.032776445659e+006 1.032776445659e+006 1.032776445659e+006 1.032776445659e+006 1.032776445659e+006 1.031718837935e+006 1.031718837935e+006 1.031718837935e+006 1.031718837935e+006 1.031718837935e+006 1.031718837935e+006 1.031718837935e+006 1.031718837935e+006 1.031718837935e+006 1.030661262018e+006 1.030661262019e+006 1.030661262019e+006 1.030661262018e+006 1.030661262019e+006 1.030661262019e+006 1.030661262018e+006 1.030661262018e+006 1.030661262018e+006 1.029603716534e+006 1.029603716534e+006 1.029603716534e+006 1.029603716534e+006 1.029603716534e+006 1.029603716534e+006 1.029603716534e+006 1.029603716534e+006 1.029603716534e+006 1.028546200133e+006 1.028546200133e+006 1.028546200133e+006 1.028546200133e+006 1.028546200133e+006 1.028546200133e+006 1.028546200133e+006 1.028546200133e+006 1.028546200133e+006 1.027488711496e+006 1.027488711496e+006 1.027488711496e+006 1.027488711496e+006 1.027488711496e+006 1.027488711496e+006 1.027488711496e+006 1.027488711496e+006 1.027488711496e+006 1.026431249329e+006 1.026431249329e+006 1.026431249329e+006 1.026431249329e+006 1.026431249329e+006 1.026431249329e+006 1.026431249329e+006 1.026431249329e+006 1.026431249329e+006 1.025373812368e+006 1.025373812368e+006 1.025373812368e+006 1.025373812368e+006 1.025373812368e+006 1.025373812368e+006 1.025373812368e+006 1.025373812368e+006 1.025373812368e+006 1.024316399371e+006 1.024316399371e+006 1.024316399372e+006 1.024316399372e+006 1.024316399372e+006 1.024316399372e+006 1.024316399372e+006 1.024316399371e+006 1.024316399371e+006 1.023259009128e+006 1.023259009127e+006 1.023259009128e+006 1.023259009128e+006 1.023259009128e+006 1.023259009128e+006 1.023259009128e+006 1.023259009128e+006 1.023259009128e+006 1.022201640448e+006 1.022201640448e+006 1.022201640448e+006 1.022201640448e+006 1.022201640448e+006 1.022201640448e+006 1.022201640448e+006 1.022201640448e+006 1.022201640448e+006 1.021144292169e+006 1.021144292169e+006 1.021144292169e+006 1.021144292169e+006 1.021144292169e+006 1.021144292169e+006 1.021144292169e+006 1.021144292169e+006 1.021144292169e+006 1.020086963151e+006 1.020086963151e+006 1.020086963151e+006 1.020086963151e+006 1.020086963151e+006 1.020086963151e+006 1.020086963151e+006 1.020086963151e+006 1.020086963151e+006 1.019029652279e+006 1.019029652279e+006 1.019029652279e+006 1.019029652279e+006 1.019029652279e+006 1.019029652279e+006 1.019029652279e+006 1.019029652279e+006 1.019029652279e+006 1.017972358458e+006 1.017972358458e+006 1.017972358458e+006 1.017972358458e+006 1.017972358458e+006 1.017972358458e+006 1.017972358458e+006 1.017972358458e+006 1.017972358458e+006 1.016915080615e+006 1.016915080615e+006 1.016915080615e+006 1.016915080615e+006 1.016915080615e+006 1.016915080615e+006 1.016915080615e+006 1.016915080615e+006 1.016915080615e+006 1.015857817699e+006 1.015857817699e+006 1.015857817699e+006 1.015857817699e+006 1.015857817699e+006 1.015857817699e+006 1.015857817699e+006 1.015857817699e+006 1.015857817699e+006 1.014800568677e+006 1.014800568677e+006 1.014800568677e+006 1.014800568677e+006 1.014800568677e+006 1.014800568677e+006 1.014800568677e+006 1.014800568677e+006 1.014800568677e+006 1.013743332535e+006 1.013743332535e+006 1.013743332535e+006 1.013743332535e+006 1.013743332535e+006 1.013743332535e+006 1.013743332535e+006 1.013743332535e+006 1.013743332535e+006 1.012686108276e+006 1.012686108276e+006 1.012686108276e+006 1.012686108276e+006 1.012686108276e+006 1.012686108276e+006 1.012686108276e+006 1.012686108276e+006 1.012686108276e+006 1.011628894920e+006 1.011628894920e+006 1.011628894920e+006 1.011628894920e+006 1.011628894920e+006 1.011628894920e+006 1.011628894920e+006 1.011628894920e+006 1.011628894920e+006 1.010571691502e+006 1.010571691502e+006 1.010571691502e+006 1.010571691502e+006 1.010571691502e+006 1.010571691502e+006 1.010571691502e+006 1.010571691502e+006 1.010571691502e+006 1.009514497070e+006 1.009514497070e+006 1.009514497070e+006 1.009514497070e+006 1.009514497070e+006 1.009514497070e+006 1.009514497070e+006 1.009514497070e+006 1.009514497070e+006 1.008457310687e+006 1.008457310687e+006 1.008457310687e+006 1.008457310687e+006 1.008457310687e+006 1.008457310687e+006 1.008457310687e+006 1.008457310687e+006 1.008457310687e+006 1.007400131426e+006 1.007400131426e+006 1.007400131426e+006 1.007400131426e+006 1.007400131426e+006 1.007400131426e+006 1.007400131426e+006 1.007400131426e+006 1.007400131426e+006 1.006342958369e+006 1.006342958369e+006 1.006342958369e+006 1.006342958369e+006 1.006342958369e+006 1.006342958369e+006 1.006342958369e+006 1.006342958369e+006 1.006342958369e+006 1.005285790611e+006 1.005285790611e+006 1.005285790611e+006 1.005285790611e+006 1.005285790611e+006 1.005285790611e+006 1.005285790611e+006 1.005285790611e+006 1.005285790611e+006 1.004228627250e+006 1.004228627250e+006 1.004228627250e+006 1.004228627250e+006 1.004228627250e+006 1.004228627250e+006 1.004228627250e+006 1.004228627250e+006 1.004228627250e+006 1.003171467395e+006 1.003171467395e+006 1.003171467395e+006 1.003171467395e+006 1.003171467395e+006 1.003171467395e+006 1.003171467395e+006 1.003171467395e+006 1.003171467395e+006 1.002114310158e+006 1.002114310158e+006 1.002114310158e+006 1.002114310158e+006 1.002114310158e+006 1.002114310158e+006 1.002114310158e+006 1.002114310158e+006 1.002114310158e+006 1.001057154653e+006 1.001057154653e+006 1.001057154653e+006 1.001057154653e+006 1.001057154653e+006 1.001057154653e+006 1.001057154653e+006 1.001057154653e+006 1.001057154653e+006 1.000000000000e+006 1.000000000000e+006 1.000000000000e+006 1.000000000000e+006 1.000000000000e+006 1.000000000000e+006 1.000000000000e+006 1.000000000000e+006 1.000000000000e+006 
        </DataArray>
        <DataArray type="Float64" Name="MOLAR_FRACTION" format="ascii">