<?xml version="1.0"?>
<VTKFile type="UnstructuredGrid" version="0.1" byte_order="LittleEndian">
  <UnstructuredGrid>
    <Piece NumberOfPoints="909" NumberOfCells="800">
      <Points>
        <DataArray type="Float64" NumberOfComponents="3" format="ascii">
          0.000000000000e+000 0.000000000000e+000 0.000000000000e+000
          2.000000000000e+000 0.000000000000e+000 0.000000000000e+000
          2.000000000000e+000 2.500000000000e+000 0.000000000000e+000
          0.000000000000e+000 2.500000000000e+000 0.000000000000e+000
          2.000000000000e+000 5.000000000000e+000 0.000000000000e+000
          0.000000000000e+000 5.000000000000e+000 0.000000000000e+000
          2.000000000000e+000 7.500000000000e+000 0.000000000000e+000
          0.000000000000e+000 7.500000000000e+000 0.000000000000e+000
          2.000000000000e+000 1.000000000000e+001 0.000000000000e+000
          0.000000000000e+000 1.000000000000e+001 0.000000000000e+000
          2.000000000000e+000 1.250000000000e+001 0.000000000000e+000
          0.000000000000e+000 1.250000000000e+001 0.000000000000e+000
          2.000000000000e+000 1.500000000000e+001 0.000000000000e+000
          0.000000000000e+000 1.500000000000e+001 0.000000000000e+000
          2.000000000000e+000 1.750000000000e+001 0.000000000000e+000
          0.000000000000e+000 1.750000000000e+001 0.000000000000e+000
          2.000000000000e+000 2.000000000000e+001 0.000000000000e+000
          0.000000000000e+000 2.000000000000e+001 0.000000000000e+000
          4.000000000000e+000 0.000000000000e+000 0.000000000000e+000
          4.000000000000e+000 2.500000000000e+000 0.000000000000e+000
          4.000000000000e+000 5.000000000000e+000 0.000000000000e+000
          4.000000000000e+000 7.500000000000e+000 0.000000000000e+000
          4.000000000000e+000 1.000000000000e+001 0.000000000000e+000
          4.000000000000e+000 1.250000000000e+001 0.000000000000e+000
          4.000000000000e+000 1.500000000000e+001 0.000000000000e+000
          4.000000000000e+000 1.750000000000e+001 0.000000000000e+000
          4.000000000000e+000 2.000000000000e+001 0.000000000000e+000
          6.000000000000e+000 0.000000000000e+000 0.000000000000e+000
          6.000000000000e+000 2.500000000000e+000 0.000000000000e+000
          6.000000000000e+000 5.000000000000e+000 0.000000000000e+000
          6.000000000000e+000 7.500000000000e+000 0.000000000000e+000
          6.000000000000e+000 1.000000000000e+001 0.000000000000e+000
          6.000000000000e+000 1.250000000000e+001 0.000000000000e+000
          6.000000000000e+000 1.500000000000e+001 0.000000000000e+000
          6.000000000000e+000 1.750000000000e+001 0.000000000000e+000
          6.000000000000e+000 2.000000000000e+001 0.000000000000e+000
          8.000000000000e+000 0.000000000000e+000 0.000000000000e+000
          8.000000000000e+000 2.500000000000e+000 0.000000000000e+000
          8.000000000000e+000 5.000000000000e+000 0.000000000000e+000
          8.000000000000e+000 7.500000000000e+000 0.000000000000e+000
          8.000000000000e+000 1.000000000000e+001 0.000000000000e+000
          8.000000000000e+000 1.250000000000e+001 0.000000000000e+000
          8.000000000000e+000 1.500000000000e+001 0.000000000000e+000
          8.000000000000e+000 1.750000000000e+001 0.000000000000e+000
          8.000000000000e+000 2.000000000000e+001 0.000000000000e+000
          1.000000000000e+001 0.000000000000e+000 0.000000000000e+000
          1.000000000000e+001 2.500000000000e+000 0.000000000000e+000
          1.000000000000e+001 5.000000000000e+000 0.000000000000e+000
          1.000000000000e+001 7.500000000000e+000 0.000000000000e+000
          1.000000000000e+001 1.000000000000e+001 0.000000000000e+000
          1.000000000000e+001 1.250000000000e+001 0.000000000000e+000
          1.000000000000e+001 1.500000000000e+001 0.000000000000e+000
          1.000000000000e+001 1.750000000000e+001 0.000000000000e+000
          1.000000000000e+001 2.000000000000e+001 0.000000000000e+000
          1.200000000000e+001 0.000000000000e+000 0.000000000000e+000
          1.200000000000e+001 2.500000000000e+000 0.000000000000e+000
          1.200000000000e+001 5.000000000000e+000 0.000000000000e+000
          1.200000000000e+001 7.500000000000e+000 0.000000000000e+000
          1.200000000000e+001 1.000000000000e+001 0.000000000000e+000
          1.200000000000e+001 1.250000000000e+001 0.000000000000e+000
          1.200000000000e+001 1.500000000000e+001 0.000000000000e+000
          1.200000000000e+001 1.750000000000e+001 0.000000000000e+000
          1.200000000000e+001 2.000000000000e+001 0.000000000000e+000
          1.400000000000e+001 0.000000000000e+000 0.000000000000e+000
          1.400000000000e+001 2.500000000000e+000 0.000000000000e+000
          1.400000000000e+001 5.000000000000e+000 0.000000000000e+000
          1.400000000000e+001 7.500000000000e+000 0.000000000000e+000
          1.400000000000e+001 1.000000000000e+001 0.000000000000e+000
          1.400000000000e+001 1.250000000000e+001 0.000000000000e+000
          1.400000000000e+001 1.500000000000e+001 0.000000000000e+000
          1.400000000000e+001 1.750000000000e+001 0.000000000000e+000
          1.400000000000e+001 2.000000000000e+001 0.000000000000e+000
          1.600000000000e+001 0.000000000000e+000 0.000000000000e+000
          1.600000000000e+001 2.500000000000e+000 0.000000000000e+000
          1.600000000000e+001 5.000000000000e+000 0.000000000000e+000
          1.600000000000e+001 7.500000000000e+000 0.000000000000e+000
          1.600000000000e+001 1.000000000000e+001 0.000000000000e+000
          1.600000000000e+001 1.250000000000e+001 0.000000000000e+000
          1.600000000000e+001 1.500000000000e+001 0.000000000000e+000
          1.600000000000e+001 1.750000000000e+001 0.000000000000e+000
          1.600000000000e+001 2.000000000000e+001 0.000000000000e+000
          1.800000000000e+001 0.000000000000e+000 0.000000000000e+000
          1.800000000000e+001 2.500000000000e+000 0.000000000000e+000
          1.800000000000e+001 5.000000000000e+000 0.000000000000e+000
          1.800000000000e+001 7.500000000000e+000 0.000000000000e+000
          1.800000000000e+001 1.000000000000e+001 0.000000000000e+000
          1.800000000000e+001 1.250000000000e+001 0.000000000000e+000
          1.800000000000e+001 1.500000000000e+001 0.000000000000e+000
          1.800000000000e+001 1.750000000000e+001 0.000000000000e+000
          1.800000000000e+001 2.000000000000e+001 0.000000000000e+000
          2.000000000000e+001 0.000000000000e+000 0.000000000000e+000
          2.000000000000e+001 2.500000000000e+000 0.000000000000e+000
          2.000000000000e+001 5.000000000000e+000 0.000000000000e+000
          2.000000000000e+001 7.500000000000e+000 0.000000000000e+000
          2.000000000000e+001 1.000000000000e+001 0.000000000000e+000
          2.000000000000e+001 1.250000000000e+001 0.000000000000e+000
          2.000000000000e+001 1.500000000000e+001 0.000000000000e+000
          2.000000000000e+001 1.750000000000e+001 0.000000000000e+000
          2.000000000000e+001 2.000000000000e+001 0.000000000000e+000
          2.200000000000e+001 0.000000000000e+000 0.000000000000e+000
          2.200000000000e+001 2.500000000000e+000 0.000000000000e+000
          2.200000000000e+001 5.000000000000e+000 0.000000000000e+000
          2.200000000000e+001 7.500000000000e+000 0.000000000000e+000
          2.200000000000e+001 1.000000000000e+001 0.000000000000e+000
          2.200000000000e+001 1.250000000000e+001 0.000000000000e+000
          2.200000000000e+001 1.500000000000e+001 0.000000000000e+000
          2.200000000000e+001 1.750000000000e+001 0.000000000000e+000
          2.200000000000e+001 2.000000000000e+001 0.000000000000e+000
          2.400000000000e+001 0.000000000000e+000 0.000000000000e+000
          2.400000000000e+001 2.500000000000e+000 0.000000000000e+000
          2.400000000000e+001 5.000000000000e+000 0.000000000000e+000
          2.400000000000e+001 7.500000000000e+000 0.000000000000e+000
          2.400000000000e+001 1.000000000000e+001 0.000000000000e+000
          2.400000000000e+001 1.250000000000e+001 0.000000000000e+000
          2.400000000000e+001 1.500000000000e+001 0.000000000000e+000
          2.400000000000e+001 1.750000000000e+001 0.000000000000e+000
          2.400000000000e+001 2.000000000000e+001 0.000000000000e+000
          2.600000000000e+001 0.000000000000e+000 0.000000000000e+000
          2.600000000000e+001 2.500000000000e+000 0.000000000000e+000
          2.600000000000e+001 5.000000000000e+000 0.000000000000e+000
          2.600000000000e+001 7.500000000000e+000 0.000000000000e+000
          2.600000000000e+001 1.000000000000e+001 0.000000000000e+000
          2.600000000000e+001 1.250000000000e+001 0.000000000000e+000
          2.600000000000e+001 1.500000000000e+001 0.000000000000e+000
          2.600000000000e+001 1.750000000000e+001 0.000000000000e+000
          2.600000000000e+001 2.000000000000e+001 0.000000000000e+000
          2.800000000000e+001 0.000000000000e+000 0.000000000000e+000
          2.800000000000e+001 2.500000000000e+000 0.000000000000e+000
          2.800000000000e+001 5.000000000000e+000 0.000000000000e+000
          2.800000000000e+001 7.500000000000e+000 0.000000000000e+000
          2.800000000000e+001 1.000000000000e+001 0.000000000000e+000
          2.800000000000e+001 1.250000000000e+001 0.000000000000e+000
          2.800000000000e+001 1.500000000000e+001 0.000000000000e+000
          2.800000000000e+001 1.750000000000e+001 0.000000000000e+000
          2.800000000000e+001 2.000000000000e+001 0.000000000000e+000
          3.000000000000e+001 0.000000000000e+000 0.000000000000e+000
          3.000000000000e+001 2.500000000000e+000 0.000000000000e+000
          3.000000000000e+001 5.000000000000e+000 0.000000000000e+000
          3.000000000000e+001 7.500000000000e+000 0.000000000000e+000
[...]
      <PointData Scalars="LIQUID_PRESSURE">
        <DataArray type="Float64" Name="LIQUID_PRESSURE" format="ascii">
          1.105905898289e+006 1.105912010786e+006 1.105912010802e+006 1.105905898190e+006 1.105912010830e+006 1.105905898123e+006 1.105912010791e+006 1.105905898223e+006 1.105912010814e+006 1.105905898198e+006 1.105912010860e+006 1.105905898060e+006 1.105912010841e+006 1.105905898039e+006 1.105912010857e+006 1.105905897984e+006 1.105912010891e+006 1.105905897904e+006 1.105861495403e+006 1.105861495449e+006 1.105861495476e+006 1.105861495423e+006 1.105861495435e+006 1.105861495496e+006 1.105861495472e+006 1.105861495496e+006 1.105861495537e+006 1.105752455628e+006 1.105752455662e+006 1.105752455680e+006 1.105752455642e+006 1.105752455650e+006 1.105752455680e+006 1.105752455661e+006 1.105752455667e+006 1.105752455686e+006 1.105676754976e+006 1.105676754994e+006 1.105676755010e+006 1.105676754979e+006 1.105676754979e+006 1.105676754994e+006 1.105676754979e+006 1.105676754974e+006 1.105676754986e+006 1.105509191506e+006 1.105509191520e+006 1.105509191526e+006 1.105509191514e+006 1.105509191505e+006 1.105509191522e+006 1.105509191509e+006 1.105509191504e+006 1.105509191512e+006 1.105321151112e+006 1.105321151120e+006 1.105321151126e+006 1.105321151117e+006 1.105321151116e+006 1.105321151121e+006 1.105321151117e+006 1.105321151116e+006 1.105321151117e+006 1.105142912126e+006 1.105142912128e+006 1.105142912132e+006 1.105142912125e+006 1.105142912130e+006 1.105142912128e+006 1.105142912128e+006 1.105142912127e+006 1.105142912127e+006 1.104867545325e+006 1.104867545323e+006 1.104867545325e+006 1.104867545322e+006 1.104867545324e+006 1.104867545326e+006 1.104867545325e+006 1.104867545328e+006 1.104867545323e+006 1.104615870318e+006 1.104615870317e+006 1.104615870318e+006 1.104615870317e+006 1.104615870317e+006 1.104615870316e+006 1.104615870317e+006 1.104615870316e+006 1.104615870318e+006 1.104307863537e+006 1.104307863541e+006 1.104307863541e+006 1.104307863539e+006 1.104307863540e+006 1.104307863539e+006 1.104307863539e+006 1.104307863540e+006 1.104307863540e+006 1.103957890367e+006 1.103957890370e+006 1.103957890368e+006 1.103957890369e+006 1.103957890367e+006 1.103957890367e+006 1.103957890372e+006 1.103957890369e+006 1.103957890372e+006 1.103605456530e+006 1.103605456529e+006 1.103605456531e+006 1.103605456530e+006 1.103605456529e+006 1.103605456532e+006 1.103605456529e+006 1.103605456530e+006 1.103605456530e+006 1.103184251665e+006 1.103184251664e+006 1.103184251667e+006 1.103184251667e+006 1.103184251668e+006 1.103184251667e+006 1.103184251666e+006 1.103184251665e+006 1.103184251665e+006 1.102773360801e+006 1.102773360804e+006 1.102773360801e+006 1.102773360804e+006 1.102773360802e+006 1.102773360803e+006 1.102773360804e+006 1.102773360804e+006 1.102773360802e+006 1.102299065789e+006 1.102299065788e+006 1.102299065791e+006 1.102299065788e+006 1.102299065791e+006 1.102299065788e+006 1.102299065789e+006 1.102299065788e+006 1.102299065789e+006 1.101809512422e+006 1.101809512419e+006 1.101809512419e+006 1.101809512419e+006 1.101809512417e+006 1.101809512420e+006 1.101809512418e+006 1.101809512419e+006 1.101809512418e+006 1.101291696309e+006 1.101291696310e+006 1.101291696309e+006 1.101291696311e+006 1.101291696310e+006 1.101291696309e+006 1.101291696310e+006 1.101291696311e+006 1.101291696310e+006 1.100714063713e+006 1.100714063713e+006 1.100714063712e+006 1.100714063712e+006 1.100714063713e+006 1.100714063714e+006 1.100714063713e+006 1.100714063712e+006 1.100714063714e+006 1.100151865745e+006 1.100151865745e+006 1.100151865744e+006 1.100151865745e+006 1.100151865745e+006 1.100151865745e+006 1.100151865745e+006 1.100151865744e+006 1.100151865746e+006 1.099516556620e+006 1.099516556618e+006 1.099516556620e+006 1.099516556619e+006 1.099516556619e+006 1.099516556620e+006 1.099516556619e+006 1.099516556619e+006 1.099516556619e+006 1.098877550289e+006 1.098877550289e+006 1.098877550290e+006 1.098877550288e+006 1.098877550289e+006 1.098877550288e+006 1.098877550288e+006 1.098877550289e+006 1.098877550287e+006 1.098199138524e+006 1.098199138523e+006 1.098199138523e+006 1.098199138525e+006 1.098199138524e+006 1.098199138525e+006 1.098199138524e+006 1.098199138524e+006 1.098199138525e+006 1.097489957822e+006 1.097489957823e+006 1.097489957822e+006 1.097489957822e+006 1.097489957822e+006 1.097489957822e+006 1.097489957822e+006 1.097489957822e+006 1.097489957822e+006 1.096759807511e+006 1.096759807510e+006 1.096759807511e+006 1.096759807510e+006 1.096759807511e+006 1.096759807510e+006 1.096759807511e+006 1.096759807510e+006 1.096759807510e+006 1.095975883023e+006 1.095975883023e+006 1.095975883023e+006 1.095975883024e+006 1.095975883023e+006 1.095975883023e+006 1.095975883023e+006 1.095975883023e+006 1.095975883023e+006 1.095192760768e+006 1.095192760767e+006 1.095192760767e+006 1.095192760767e+006 1.095192760768e+006 1.095192760767e+006 1.095192760767e+006 1.095192760768e+006 1.095192760767e+006 1.094357743933e+006 1.094357743934e+006 1.094357743935e+006 1.094357743934e+006 1.094357743934e+006 1.094357743934e+006 1.094357743934e+006 1.094357743935e+006 1.094357743935e+006 1.093499054713e+006 1.093499054714e+006 1.093499054713e+006 1.093499054713e+006 1.093499054713e+006 1.093499054713e+006 1.093499054713e+006 1.093499054713e+006 1.093499054713e+006 1.092630476009e+006 1.092630476009e+006 1.092630476009e+006 1.092630476009e+006 1.092630476009e+006 1.092630476009e+006 1.092630476009e+006 1.092630476009e+006 1.092630476009e+006 1.091697039336e+006 1.091697039337e+006 1.091697039336e+006 1.091697039336e+006 1.091697039337e+006 1.091697039337e+006 1.091697039337e+006 1.091697039337e+006 1.091697039337e+006 1.090767487497e+006 1.090767487497e+006 1.090767487497e+006 1.090767487497e+006 1.090767487497e+006 1.090767487497e+006 1.090767487497e+006 1.090767487497e+006 1.090767487497e+006 1.089796913225e+006 1.089796913226e+006 1.089796913225e+006 1.089796913225e+006 1.089796913225e+006 1.089796913225e+006 1.089796913225e+006 1.089796913225e+006 1.089796913225e+006 1.088782908714e+006 1.088782908714e+006 1.088782908714e+006 1.088782908714e+006 1.088782908714e+006 1.088782908714e+006 1.088782908714e+006 1.088782908714e+006 1.088782908714e+006 1.087774763617e+006 1.087774763617e+006 1.087774763617e+006 1.087774763617e+006 1.087774763617e+006 1.087774763617e+006 1.087774763617e+006 1.087774763616e+006 1.087774763617e+006 1.086707971487e+006 1.086707971487e+006 1.086707971487e+006 1.086707971487e+006 1.086707971487e+006 1.086707971487e+006 1.086707971487e+006 1.086707971487e+006 1.086707971487e+006 1.085624398785e+006 1.085624398785e+006 1.085624398785e+006 1.085624398785e+006 1.085624398785e+006 1.085624398785e+006 1.085624398784e+006 1.085624398785e+006 1.085624398785e+006 1.084525985924e+006 1.084525985924e+006 1.084525985925e+006 1.084525985924e+006 1.084525985925e+006 1.084525985925e+006 1.084525985925e+006 1.084525985924e+006 1.084525985925e+006 1.083379551194e+006 1.083379551194e+006 1.083379551193e+006 1.083379551194e+006 1.083379551194e+006 1.083379551194e+006 1.083379551194e+006 1.083379551194e+006 1.083379551194e+006 1.082219546509e+006 1.082219546509e+006 1.082219546509e+006 1.082219546509e+006 1.082219546508e+006 1.082219546509e+006 1.082219546508e+006 1.082219546509e+006 1.082219546508e+006 1.081043551973e+006 1.081043551972e+006 1.081043551972e+006 1.081043551973e+006 1.081043551973e+006 1.081043551973e+006 1.081043551973e+006 1.081043551972e+006 1.081043551973e+006 1.079807963619e+006 1.079807963619e+006 1.079807963619e+006 1.079807963619e+006 1.079807963619e+006 1.079807963619e+006 1.079807963619e+006 1.079807963619e+006 1.079807963619e+006 1.078572823071e+006 1.078572823071e+006 1.078572823071e+006 1.078572823071e+006 1.078572823071e+006 1.078572823071e+006 1.078572823071e+006 1.078572823071e+006 1.078572823071e+006 1.077310998203e+006 1.077310998203e+006 1.077310998203e+006 1.077310998203e+006 1.077310998203e+006 1.077310998203e+006 1.077310998203e+006 1.077310998203e+006 1.077310998203e+006 1.076022487633e+006 1.076022487633e+006 1.076022487633e+006 1.076022487633e+006 1.076022487633e+006 1.076022487633e+006 1.076022487633e+006 1.076022487633e+006 1.076022487633e+006 1.074715045723e+006 1.074715045723e+006 1.074715045723e+006 1.074715045723e+006 1.074715045723e+006 1.074715045723e+006 1.074715045723e+006 1.074715045723e+006 1.074715045723e+006 1.073355040175e+006 1.073355040174e+006 1.073355040174e+006 1.073355040174e+006 1.073355040174e+006 1.073355040174e+006 1.073355040174e+006 1.073355040174e+006 1.073355040174e+006 1.071983399899e+006 1.071983399899e+006 1.071983399899e+006 1.071983399899e+006 1.071983399899e+006 1.071983399899e+006 1.071983399899e+006 1.071983399899e+006 1.071983399899e+006 1.070635004649e+006 1.070635004649e+006 1.070635004649e+006 1.070635004649e+006 1.070635004649e+006 1.070635004649e+006 1.070635004649e+006 1.070635004649e+006 1.070635004649e+006 1.069215325886e+006 1.069215325886e+006 1.069215325886e+006 1.069215325886e+006 1.069215325886e+006 1.069215325886e+006 1.069215325886e+006 1.069215325886e+006 1.069215325886e+006 1.067774950910e+006 1.067774950910e+006 1.067774950910e+006 1.067774950910e+006 1.067774950910e+006 1.067774950910e+006 1.067774950909e+006 1.067774950910e+006 1.067774950909e+006 1.066310311269e+006 1.066310311268e+006 1.066310311269e+006 1.066310311269e+006 1.066310311269e+006 1.066310311269e+006 1.066310311269e+006 1.066310311269e+006 1.066310311268e+006 1.064820561527e+006 1.064820561526e+006 1.064820561527e+006 1.064820561526e+006 1.064820561527e+006 1.064820561526e+006 1.064820561526e+006 1.064820561526e+006 1.064820561527e+006 1.063346576739e+006 1.063346576739e+006 1.063346576738e+006 1.063346576739e+006 1.063346576739e+006 1.063346576739e+006 1.063346576739e+006 1.063346576739e+006 1.063346576739e+006 1.061852431489e+006 1.061852431488e+006 1.061852431488e+006 1.061852431488e+006 1.061852431488e+006 1.061852431488e+006 1.061852431488e+006 1.061852431489e+006 1.061852431489e+006 1.060316961756e+006 1.060316961756e+006 1.060316961756e+006 1.060316961756e+006 1.060316961756e+006 1.060316961756e+006 1.060316961756e+006 1.060316961756e+006 1.060316961756e+006 1.058753806736e+006 1.058753806736e+006 1.058753806736e+006 1.058753806736e+006 1.058753806736e+006 1.058753806736e+006 1.058753806736e+006 1.058753806736e+006 1.058753806736e+006 1.057186756180e+006 1.057186756181e+006 1.057186756181e+006 1.057186756181e+006 1.057186756181e+006 1.057186756181e+006 1.057186756181e+006 1.057186756181e+006 1.057186756180e+006 1.055565539382e+006 1.055565539382e+006 1.055565539383e+006 1.055565539383e+006 1.055565539381e+006 1.055565539382e+006 1.055565539382e+006 1.055565539383e+006 1.055565539382e+006 1.053922359971e+006 1.053922359971e+006 1.053922359971e+006 1.053922359972e+006 1.053922359971e+006 1.053922359971e+006 1.053922359971e+006 1.053922359972e+006 1.053922359972e+006 1.052361973003e+006 1.052361973003e+006 1.052361973004e+006 1.052361973004e+006 1.052361973005e+006 1.052361973005e+006 1.052361973006e+006 1.052361973006e+006 1.052361973006e+006 1.050798007648e+006 1.050798007648e+006 1.050798007649e+006 1.050798007649e+006 1.050798007650e+006 1.050798007650e+006 1.050798007650e+006 1.050798007651e+006 1.050798007651e+006 1.049096908455e+006 1.049096908455e+006 1.049096908453e+006 1.049096908449e+006 1.049096908447e+006 1.049096908445e+006 1.049096908444e+006 1.049096908444e+006 1.049096908443e+006 1.047366662165e+006 1.047366662164e+006 1.047366662163e+006 1.047366662164e+006 1.047366662163e+006 1.047366662162e+006 1.047366662162e+006 1.047366662161e+006 1.047366662161e+006 1.045836798903e+006 1.045836798905e+006 1.045836798909e+006 1.045836798919e+006 1.045836798927e+006 1.045836798931e+006 1.045836798933e+006 1.045836798934e+006 1.045836798934e+006 1.043971129808e+006 1.043971129810e+006 1.043971129807e+006 1.043971129786e+006 1.043971129775e+006 1.043971129770e+006 1.043971129767e+006 1.043971129764e+006 1.043971129763e+006 1.042487469675e+006 1.042487469675e+006 1.042487469670e+006 1.042487469682e+006 1.042487469679e+006 1.042487469681e+006 1.042487469682e+006 1.042487469683e+006 1.042487469682e+006 1.040637814868e+006 1.040637814865e+006 1.040637814863e+006 1.040637814878e+006 1.040637814881e+006 1.040637814881e+006 1.040637814884e+006 1.040637814884e+006 1.040637814885e+006 1.038939504075e+006 1.038939504072e+006 1.038939504069e+006 1.038939504077e+006 1.038939504077e+006 1.038939504077e+006 1.038939504079e+006 1.038939504079e+006 1.038939504079e+006 1.037329117583e+006 1.037329117581e+006 1.037329117579e+006 1.037329117582e+006 1.037329117582e+006 1.037329117580e+006 1.037329117581e+006 1.037329117581e+006 1.037329117582e+006 1.035698938924e+006 1.035698938922e+006 1.035698938921e+006 1.035698938922e+006 1.035698938921e+006 1.035698938920e+006 1.035698938921e+006 1.035698938921e+006 1.035698938921e+006 1.034103400013e+006 1.034103400012e+006 1.034103400011e+006 1.034103400011e+006 1.034103400012e+006 1.034103400012e+006 1.034103400013e+006 1.034103400012e+006 1.034103400012e+006 1.032443388258e+006 1.032443388257e+006 1.032443388256e+006 1.032443388257e+006 1.032443388257e+006 1.032443388257e+006 1.032443388258e+006 1.032443388258e+006 1.032443388258e+006 1.030859386518e+006 1.030859386518e+006 1.030859386518e+006 1.030859386518e+006 1.030859386519e+006 1.030859386518e+006 1.030859386519e+006 1.030859386519e+006 1.030859386519e+006 1.029428790219e+006 1.029428790219e+006 1.029428790219e+006 1.029428790220e+006 1.029428790220e+006 1.029428790220e+006 1.029428790220e+006 1.029428790220e+006 1.029428790220e+006 1.028202099507e+006 1.028202099506e+006 1.028202099507e+006 1.028202099507e+006 1.028202099507e+006 1.028202099507e+006 1.028202099507e+006 1.028202099507e+006 1.028202099507e+006 1.027073776566e+006 1.027073776565e+006 1.027073776565e+006 1.027073776565e+006 1.027073776565e+006 1.027073776565e+006 1.027073776566e+006 1.027073776565e+006 1.027073776565e+006 1.025945481835e+006 1.025945481835e+006 1.025945481835e+006 1.025945481835e+006 1.025945481834e+006 1.025945481835e+006 1.025945481835e+006 1.025945481835e+006 1.025945481835e+006 1.024817214595e+006 1.024817214594e+006 1.024817214594e+006 1.024817214594e+006 1.024817214594e+006 1.024817214594e+006 1.024817214594e+006 1.024817214594e+006 1.024817214594e+006 1.023688973813e+006 1.023688973813e+006 1.023688973813e+006 1.023688973813e+006 1.023688973813e+006 1.023688973813e+006 1.023688973813e+006 1.023688973813e+006 1.023688973813e+006 1.022560758440e+006 1.022560758440e+006 1.022560758441e+006 1.022560758441e+006 1.022560758441e+006 1.022560758441e+006 1.022560758440e+006 1.022560758441e+006 1.022560758440e+006 1.021432567436e+006 1.021432567435e+006 1.021432567436e+006 1.021432567435e+006 1.021432567436e+006 1.021432567435e+006 1.021432567435e+006 1.021432567435e+006 1.021432567435e+006 1.020304399743e+006 1.020304399743e+006 1.020304399744e+006 1.020304399743e+006 1.020304399744e+006 1.020304399743e+006 1.020304399743e+006 1.020304399743e+006 1.020304399743e+006 1.019176254276e+006 1.019176254276e+006 1.019176254276e+006 1.019176254276e+006 1.019176254276e+006 1.019176254276e+006 1.019176254275e+006 1.019176254275e+006 1.019176254275e+006 1.018048129904e+006 1.018048129904e+006 1.018048129904e+006 1.018048129904e+006 1.018048129904e+006 1.018048129904e+006 1.018048129904e+006 1.018048129904e+006 1.018048129903e+006 1.016920025464e+006 1.016920025464e+006 1.016920025463e+006 1.016920025463e+006 1.016920025463e+006 1.016920025463e+006 1.016920025463e+006 1.016920025463e+006 1.016920025463e+006 1.015791939761e+006 1.015791939761e+006 1.015791939761e+006 1.015791939760e+006 1.015791939760e+006 1.015791939760e+006 1.015791939760e+006 1.015791939760e+006 1.015791939760e+006 1.014663871576e+006 1.014663871576e+006 1.014663871576e+006 1.014663871576e+006 1.014663871576e+006 1.014663871575e+006 1.014663871575e+006 1.014663871575e+006 1.014663871576e+006 1.013535819673e+006 1.013535819673e+006 1.013535819673e+006 1.013535819673e+006 1.013535819672e+006 1.013535819672e+006 1.013535819672e+006 1.013535819672e+006 1.013535819672e+006 1.012407782797e+006 1.012407782797e+006 1.012407782797e+006 1.012407782797e+006 1.012407782797e+006 1.012407782797e+006 1.012407782796e+006 1.012407782796e+006 1.012407782796e+006 1.011279759682e+006 1.011279759682e+006 1.011279759682e+006 1.011279759682e+006 1.011279759682e+006 1.011279759682e+006 1.011279759682e+006 1.011279759682e+006 1.011279759681e+006 1.010151749049e+006 1.010151749049e+006 1.010151749049e+006 1.010151749049e+006 1.010151749049e+006 1.010151749049e+006 1.010151749049e+006 1.010151749049e+006 1.010151749049e+006 1.009023749610e+006 1.009023749610e+006 1.009023749610e+006 1.009023749610e+006 1.009023749610e+006 1.009023749610e+006 1.009023749610e+006 1.009023749610e+006 1.009023749610e+006 1.007895760066e+006 1.007895760066e+006 1.007895760066e+006 1.007895760066e+006 1.007895760066e+006 1.007895760066e+006 1.007895760066e+006 1.007895760066e+006 1.007895760066e+006 1.006767779114e+006 1.006767779114e+006 1.006767779114e+006 1.006767779114e+006 1.006767779114e+006 1.006767779114e+006 1.006767779114e+006 1.006767779114e+006 1.006767779114e+006 1.005639805440e+006 1.005639805440e+006 1.005639805440e+006 1.005639805440e+006 1.005639805440e+006 1.005639805440e+006 1.005639805440e+006 1.005639805440e+006 1.005639805440e+006 1.004511837727e+006 1.004511837727e+006 1.004511837727e+006 1.004511837727e+006 1.004511837727e+006 1.004511837727e+006 1.004511837727e+006 1.004511837727e+006 1.004511837727e+006 1.003383874653e+006 1.003383874653e+006 1.003383874653e+006 1.003383874653e+006 1.003383874653e+006 1.003383874653e+006 1.003383874653e+006 1.003383874653e+006 1.003383874653e+006 1.002255914893e+006 1.002255914893e+006 1.002255914893e+006 1.002255914893e+006 1.002255914893e+006 1.002255914893e+006 1.002255914893e+006 1.002255914893e+006 1.002255914893e+006 1.001127957119e+006 1.001127957119e+006 1.001127957119e+006 1.001127957119e+006 1.001127957119e+006 1.001127957119e+006 1.001127957119e+006 1.001127957119e+006 1.001127957119e+006 1.000000000000e+006 1.000000000000e+006 1.000000000000e+006 1.000000000000e+006 1.000000000000e+006 1.000000000000e+006 1.000000000000e+006 1.000000000000e+006 1.000000000000e+006 
        </DataArray>
        <DataArray type="Float64" Name="MOLAR_FRACTION" format="ascii">