<?xml version="1.0"?>
<VTKFile type="UnstructuredGrid" version="0.1" byte_order="LittleEndian">
  <UnstructuredGrid>
    <Piece NumberOfPoints="909" NumberOfCells="800">
      <Points>
        <DataArray type="Float64" NumberOfComponents="3" format="ascii">
          0.000000000000e+000 0.000000000000e+000 0.000000000000e+000
          2.000000000000e+000 0.000000000000e+000 0.000000000000e+000
          2.000000000000e+000 2.500000000000e+000 0.000000000000e+000
          0.000000000000e+000 2.500000000000e+000 0.000000000000e+000
          2.000000000000e+000 5.000000000000e+000 0.000000000000e+000
          0.000000000000e+000 5.000000000000e+000 0.000000000000e+000
          2.000000000000e+000 7.500000000000e+000 0.000000000000e+000
          0.000000000000e+000 7.500000000000e+000 0.000000000000e+000
          2.000000000000e+000 1.000000000000e+001 0.000000000000e+000
          0.000000000000e+000 1.000000000000e+001 0.000000000000e+000
          2.000000000000e+000 1.250000000000e+001 0.000000000000e+000
          0.000000000000e+000 1.250000000000e+001 0.000000000000e+000
          2.000000000000e+000 1.500000000000e+001 0.000000000000e+000
          0.000000000000e+000 1.500000000000e+001 0.000000000000e+000
          2.000000000000e+000 1.750000000000e+001 0.000000000000e+000
          0.000000000000e+000 1.750000000000e+001 0.000000000000e+000
          2.000000000000e+000 2.000000000000e+001 0.000000000000e+000
          0.000000000000e+000 2.000000000000e+001 0.000000000000e+000
          4.000000000000e+000 0.000000000000e+000 0.000000000000e+000
          4.000000000000e+000 2.500000000000e+000 0.000000000000e+000
          4.000000000000e+000 5.000000000000e+000 0.000000000000e+000
          4.000000000000e+000 7.500000000000e+000 0.000000000000e+000
          4.000000000000e+000 1.000000000000e+001 0.000000000000e+000
          4.000000000000e+000 1.250000000000e+001 0.000000000000e+000
          4.000000000000e+000 1.500000000000e+001 0.000000000000e+000
          4.000000000000e+000 1.750000000000e+001 0.000000000000e+000
          4.000000000000e+000 2.000000000000e+001 0.000000000000e+000
          6.000000000000e+000 0.000000000000e+000 0.000000000000e+000
          6.000000000000e+000 2.500000000000e+000 0.000000000000e+000
          6.000000000000e+000 5.000000000000e+000 0.000000000000e+000
          6.000000000000e+000 7.500000000000e+000 0.000000000000e+000
          6.000000000000e+000 1.000000000000e+001 0.000000000000e+000
          6.000000000000e+000 1.250000000000e+001 0.000000000000e+000
          6.000000000000e+000 1.500000000000e+001 0.000000000000e+000
          6.000000000000e+000 1.750000000000e+001 0.000000000000e+000
          6.000000000000e+000 2.000000000000e+001 0.000000000000e+000
          8.000000000000e+000 0.000000000000e+000 0.000000000000e+000
          8.000000000000e+000 2.500000000000e+000 0.000000000000e+000
          8.000000000000e+000 5.000000000000e+000 0.000000000000e+000
          8.000000000000e+000 7.500000000000e+000 0.000000000000e+000
          8.000000000000e+000 1.000000000000e+001 0.000000000000e+000
          8.000000000000e+000 1.250000000000e+001 0.000000000000e+000
          8.000000000000e+000 1.500000000000e+001 0.000000000000e+000
          8.000000000000e+000 1.750000000000e+001 0.000000000000e+000
          8.000000000000e+000 2.000000000000e+001 0.000000000000e+000
          1.000000000000e+001 0.000000000000e+000 0.000000000000e+000
          1.000000000000e+001 2.500000000000e+000 0.000000000000e+000
          1.000000000000e+001 5.000000000000e+000 0.000000000000e+000
          1.000000000000e+001 7.500000000000e+000 0.000000000000e+000
          1.000000000000e+001 1.000000000000e+001 0.000000000000e+000
          1.000000000000e+001 1.250000000000e+001 0.000000000000e+000
          1.000000000000e+001 1.500000000000e+001 0.000000000000e+000
          1.000000000000e+001 1.750000000000e+001 0.000000000000e+000
          1.000000000000e+001 2.000000000000e+001 0.000000000000e+000
          1.200000000000e+001 0.000000000000e+000 0.000000000000e+000
          1.200000000000e+001 2.500000000000e+000 0.000000000000e+000
          1.200000000000e+001 5.000000000000e+000 0.000000000000e+000
          1.200000000000e+001 7.500000000000e+000 0.000000000000e+000
          1.200000000000e+001 1.000000000000e+001 0.000000000000e+000
          1.200000000000e+001 1.250000000000e+001 0.000000000000e+000
          1.200000000000e+001 1.500000000000e+001 0.000000000000e+000
          1.200000000000e+001 1.750000000000e+001 0.000000000000e+000
          1.200000000000e+001 2.000000000000e+001 0.000000000000e+000
          1.400000000000e+001 0.000000000000e+000 0.000000000000e+000
          1.400000000000e+001 2.500000000000e+000 0.000000000000e+000
          1.400000000000e+001 5.000000000000e+000 0.000000000000e+000
          1.400000000000e+001 7.500000000000e+000 0.000000000000e+000
          1.400000000000e+001 1.000000000000e+001 0.000000000000e+000
          1.400000000000e+001 1.250000000000e+001 0.000000000000e+000
          1.400000000000e+001 1.500000000000e+001 0.000000000000e+000
          1.400000000000e+001 1.750000000000e+001 0.000000000000e+000
          1.400000000000e+001 2.000000000000e+001 0.000000000000e+000
          1.600000000000e+001 0.000000000000e+000 0.000000000000e+000
          1.600000000000e+001 2.500000000000e+000 0.000000000000e+000
          1.600000000000e+001 5.000000000000e+000 0.000000000000e+000
          1.600000000000e+001 7.500000000000e+000 0.000000000000e+000
          1.600000000000e+001 1.000000000000e+001 0.000000000000e+000
          1.600000000000e+001 1.250000000000e+001 0.000000000000e+000
          1.600000000000e+001 1.500000000000e+001 0.000000000000e+000
          1.600000000000e+001 1.750000000000e+001 0.000000000000e+000
          1.600000000000e+001 2.000000000000e+001 0.000000000000e+000
          1.800000000000e+001 0.000000000000e+000 0.000000000000e+000
          1.800000000000e+001 2.500000000000e+000 0.000000000000e+000
          1.800000000000e+001 5.000000000000e+000 0.000000000000e+000
          1.800000000000e+001 7.500000000000e+000 0.000000000000e+000
          1.800000000000e+001 1.000000000000e+001 0.000000000000e+000
          1.800000000000e+001 1.250000000000e+001 0.000000000000e+000
          1.800000000000e+001 1.500000000000e+001 0.000000000000e+000
          1.800000000000e+001 1.750000000000e+001 0.000000000000e+000
          1.800000000000e+001 2.000000000000e+001 0.000000000000e+000
          2.000000000000e+001 0.000000000000e+000 0.000000000000e+000
          2.000000000000e+001 2.500000000000e+000 0.000000000000e+000
          2.000000000000e+001 5.000000000000e+000 0.000000000000e+000
          2.000000000000e+001 7.500000000000e+000 0.000000000000e+000
          2.000000000000e+001 1.000000000000e+001 0.000000000000e+000
          2.000000000000e+001 1.250000000000e+001 0.000000000000e+000
          2.000000000000e+001 1.500000000000e+001 0.000000000000e+000
          2.000000000000e+001 1.750000000000e+001 0.000000000000e+000
          2.000000000000e+001 2.000000000000e+001 0.000000000000e+000
          2.200000000000e+001 0.000000000000e+000 0.000000000000e+000
          2.200000000000e+001 2.500000000000e+000 0.000000000000e+000
          2.200000000000e+001 5.000000000000e+000 0.000000000000e+000
          2.200000000000e+001 7.500000000000e+000 0.000000000000e+000
          2.200000000000e+001 1.000000000000e+001 0.000000000000e+000
          2.200000000000e+001 1.250000000000e+001 0.000000000000e+000
          2.200000000000e+001 1.500000000000e+001 0.000000000000e+000
          2.200000000000e+001 1.750000000000e+001 0.000000000000e+000
          2.200000000000e+001 2.000000000000e+001 0.000000000000e+000
          2.400000000000e+001 0.000000000000e+000 0.000000000000e+000
          2.400000000000e+001 2.500000000000e+000 0.000000000000e+000
          2.400000000000e+001 5.000000000000e+000 0.000000000000e+000
          2.400000000000e+001 7.500000000000e+000 0.000000000000e+000
          2.400000000000e+001 1.000000000000e+001 0.000000000000e+000
          2.400000000000e+001 1.250000000000e+001 0.000000000000e+000
          2.400000000000e+001 1.500000000000e+001 0.000000000000e+000
          2.400000000000e+001 1.750000000000e+001 0.000000000000e+000
          2.400000000000e+001 2.000000000000e+001 0.000000000000e+000
          2.600000000000e+001 0.000000000000e+000 0.000000000000e+000
          2.600000000000e+001 2.500000000000e+000 0.000000000000e+000
          2.600000000000e+001 5.000000000000e+000 0.000000000000e+000
          2.600000000000e+001 7.500000000000e+000 0.000000000000e+000
          2.600000000000e+001 1.000000000000e+001 0.000000000000e+000
          2.600000000000e+001 1.250000000000e+001 0.000000000000e+000
          2.600000000000e+001 1.500000000000e+001 0.000000000000e+000
          2.600000000000e+001 1.750000000000e+001 0.000000000000e+000
          2.600000000000e+001 2.000000000000e+001 0.000000000000e+000
          2.800000000000e+001 0.000000000000e+000 0.000000000000e+000
          2.800000000000e+001 2.500000000000e+000 0.000000000000e+000
          2.800000000000e+001 5.000000000000e+000 0.000000000000e+000
          2.800000000000e+001 7.500000000000e+000 0.000000000000e+000
          2.800000000000e+001 1.000000000000e+001 0.000000000000e+000
          2.800000000000e+001 1.250000000000e+001 0.000000000000e+000
          2.800000000000e+001 1.500000000000e+001 0.000000000000e+000
          2.800000000000e+001 1.750000000000e+001 0.000000000000e+000
          2.800000000000e+001 2.000000000000e+001 0.000000000000e+000
          3.000000000000e+001 0.000000000000e+000 0.000000000000e+000
          3.000000000000e+001 2.500000000000e+000 0.000000000000e+000
          3.000000000000e+001 5.000000000000e+000 0.000000000000e+000
          3.000000000000e+001 7.500000000000e+000 0.000000000000e+000
[...]
      <PointData Scalars="LIQUID_PRESSURE">
        <DataArray type="Float64" Name="LIQUID_PRESSURE" format="ascii">
          1.074473664678e+006 1.074480957819e+006 1.074480957834e+006 1.074473664587e+006 1.074480957861e+006 1.074473664524e+006 1.074480957824e+006 1.074473664619e+006 1.074480957845e+006 1.074473664596e+006 1.074480957890e+006 1.074473664470e+006 1.074480957875e+006 1.074473664459e+006 1.074480957891e+006 1.074473664412e+006 1.074480957923e+006 1.074473664338e+006 1.074442584035e+006 1.074442584075e+006 1.074442584098e+006 1.074442584051e+006 1.074442584060e+006 1.074442584113e+006 1.074442584089e+006 1.074442584109e+006 1.074442584146e+006 1.074352380017e+006 1.074352380045e+006 1.074352380060e+006 1.074352380027e+006 1.074352380034e+006 1.074352380059e+006 1.074352380039e+006 1.074352380043e+006 1.074352380059e+006 1.074299203358e+006 1.074299203372e+006 1.074299203387e+006 1.074299203360e+006 1.074299203360e+006 1.074299203372e+006 1.074299203358e+006 1.074299203352e+006 1.074299203364e+006 1.074166035812e+006 1.074166035824e+006 1.074166035828e+006 1.074166035819e+006 1.074166035811e+006 1.074166035826e+006 1.074166035815e+006 1.074166035810e+006 1.074166035817e+006 1.074016884795e+006 1.074016884801e+006 1.074016884806e+006 1.074016884799e+006 1.074016884799e+006 1.074016884803e+006 1.074016884800e+006 1.074016884799e+006 1.074016884800e+006 1.073883798046e+006 1.073883798048e+006 1.073883798051e+006 1.073883798045e+006 1.073883798050e+006 1.073883798048e+006 1.073883798049e+006 1.073883798047e+006 1.073883798048e+006 1.073663183037e+006 1.073663183035e+006 1.073663183037e+006 1.073663183035e+006 1.073663183036e+006 1.073663183038e+006 1.073663183038e+006 1.073663183040e+006 1.073663183036e+006 1.073470834947e+006 1.073470834946e+006 1.073470834947e+006 1.073470834946e+006 1.073470834946e+006 1.073470834945e+006 1.073470834946e+006 1.073470834945e+006 1.073470834947e+006 1.073231576997e+006 1.073231577000e+006 1.073231577000e+006 1.073231576999e+006 1.073231577000e+006 1.073231576999e+006 1.073231576999e+006 1.073231576999e+006 1.073231576999e+006 1.072957545785e+006 1.072957545788e+006 1.072957545786e+006 1.072957545787e+006 1.072957545784e+006 1.072957545785e+006 1.072957545790e+006 1.072957545786e+006 1.072957545789e+006 1.072688401465e+006 1.072688401464e+006 1.072688401465e+006 1.072688401464e+006 1.072688401463e+006 1.072688401466e+006 1.072688401463e+006 1.072688401464e+006 1.072688401464e+006 1.072357536145e+006 1.072357536144e+006 1.072357536146e+006 1.072357536146e+006 1.072357536147e+006 1.072357536146e+006 1.072357536145e+006 1.072357536145e+006 1.072357536145e+006 1.072042786471e+006 1.072042786475e+006 1.072042786472e+006 1.072042786474e+006 1.072042786473e+006 1.072042786473e+006 1.072042786474e+006 1.072042786474e+006 1.072042786472e+006 1.071673599268e+006 1.071673599267e+006 1.071673599270e+006 1.071673599267e+006 1.071673599269e+006 1.071673599267e+006 1.071673599268e+006 1.071673599267e+006 1.071673599268e+006 1.071295026089e+006 1.071295026087e+006 1.071295026087e+006 1.071295026087e+006 1.071295026085e+006 1.071295026088e+006 1.071295026086e+006 1.071295026087e+006 1.071295026086e+006 1.070898413101e+006 1.070898413102e+006 1.070898413101e+006 1.070898413102e+006 1.070898413101e+006 1.070898413101e+006 1.070898413102e+006 1.070898413103e+006 1.070898413101e+006 1.070448561628e+006 1.070448561628e+006 1.070448561627e+006 1.070448561627e+006 1.070448561628e+006 1.070448561629e+006 1.070448561628e+006 1.070448561627e+006 1.070448561629e+006 1.070021097785e+006 1.070021097784e+006 1.070021097784e+006 1.070021097784e+006 1.070021097784e+006 1.070021097784e+006 1.070021097784e+006 1.070021097783e+006 1.070021097785e+006 1.069528755443e+006 1.069528755442e+006 1.069528755443e+006 1.069528755442e+006 1.069528755442e+006 1.069528755443e+006 1.069528755442e+006 1.069528755442e+006 1.069528755442e+006 1.069039588990e+006 1.069039588990e+006 1.069039588991e+006 1.069039588989e+006 1.069039588990e+006 1.069039588989e+006 1.069039588989e+006 1.069039588990e+006 1.069039588989e+006 1.068519063704e+006 1.068519063703e+006 1.068519063703e+006 1.068519063705e+006 1.068519063704e+006 1.068519063705e+006 1.068519063704e+006 1.068519063704e+006 1.068519063705e+006 1.067974529291e+006 1.067974529292e+006 1.067974529291e+006 1.067974529292e+006 1.067974529291e+006 1.067974529292e+006 1.067974529291e+006 1.067974529292e+006 1.067974529292e+006 1.067419144819e+006 1.067419144818e+006 1.067419144818e+006 1.067419144817e+006 1.067419144818e+006 1.067419144817e+006 1.067419144818e+006 1.067419144818e+006 1.067419144818e+006 1.066817611993e+006 1.066817611993e+006 1.066817611993e+006 1.066817611994e+006 1.066817611993e+006 1.066817611994e+006 1.066817611993e+006 1.066817611994e+006 1.066817611993e+006 1.066223594255e+006 1.066223594254e+006 1.066223594254e+006 1.066223594254e+006 1.066223594254e+006 1.066223594254e+006 1.066223594254e+006 1.066223594255e+006 1.066223594254e+006 1.065587732357e+006 1.065587732358e+006 1.065587732358e+006 1.065587732358e+006 1.065587732358e+006 1.065587732358e+006 1.065587732358e+006 1.065587732359e+006 1.065587732359e+006 1.064932956916e+006 1.064932956917e+006 1.064932956916e+006 1.064932956916e+006 1.064932956916e+006 1.064932956916e+006 1.064932956917e+006 1.064932956916e+006 1.064932956916e+006 1.064278154496e+006 1.064278154496e+006 1.064278154496e+006 1.064278154496e+006 1.064278154496e+006 1.064278154496e+006 1.064278154496e+006 1.064278154496e+006 1.064278154496e+006 1.063567592748e+006 1.063567592749e+006 1.063567592748e+006 1.063567592748e+006 1.063567592749e+006 1.063567592748e+006 1.063567592749e+006 1.063567592749e+006 1.063567592749e+006 1.062866812073e+006 1.062866812073e+006 1.062866812073e+006 1.062866812073e+006 1.062866812073e+006 1.062866812073e+006 1.062866812073e+006 1.062866812073e+006 1.062866812073e+006 1.062136942378e+006 1.062136942379e+006 1.062136942379e+006 1.062136942379e+006 1.062136942379e+006 1.062136942379e+006 1.062136942378e+006 1.062136942379e+006 1.062136942378e+006 1.061370058836e+006 1.061370058836e+006 1.061370058836e+006 1.061370058836e+006 1.061370058836e+006 1.061370058836e+006 1.061370058836e+006 1.061370058837e+006 1.061370058836e+006 1.060617157672e+006 1.060617157672e+006 1.060617157672e+006 1.060617157672e+006 1.060617157672e+006 1.060617157672e+006 1.060617157672e+006 1.060617157672e+006 1.060617157672e+006 1.059815995410e+006 1.059815995410e+006 1.059815995410e+006 1.059815995410e+006 1.059815995410e+006 1.059815995410e+006 1.059815995410e+006 1.059815995410e+006 1.059815995410e+006 1.059004884945e+006 1.059004884945e+006 1.059004884945e+006 1.059004884945e+006 1.059004884945e+006 1.059004884945e+006 1.059004884945e+006 1.059004884945e+006 1.059004884945e+006 1.058187593997e+006 1.058187593997e+006 1.058187593998e+006 1.058187593997e+006 1.058187593998e+006 1.058187593998e+006 1.058187593998e+006 1.058187593997e+006 1.058187593998e+006 1.057331843007e+006 1.057331843006e+006 1.057331843006e+006 1.057331843006e+006 1.057331843006e+006 1.057331843006e+006 1.057331843006e+006 1.057331843007e+006 1.057331843006e+006 1.056470154120e+006 1.056470154120e+006 1.056470154120e+006 1.056470154120e+006 1.056470154119e+006 1.056470154120e+006 1.056470154120e+006 1.056470154120e+006 1.056470154120e+006 1.055601992150e+006 1.055601992150e+006 1.055601992150e+006 1.055601992151e+006 1.055601992150e+006 1.055601992151e+006 1.055601992151e+006 1.055601992150e+006 1.055601992151e+006 1.054686063134e+006 1.054686063134e+006 1.054686063134e+006 1.054686063134e+006 1.054686063134e+006 1.054686063134e+006 1.054686063134e+006 1.054686063134e+006 1.054686063134e+006 1.053776638649e+006 1.053776638649e+006 1.053776638649e+006 1.053776638649e+006 1.053776638649e+006 1.053776638649e+006 1.053776638649e+006 1.053776638649e+006 1.053776638649e+006 1.052849368241e+006 1.052849368240e+006 1.052849368241e+006 1.052849368241e+006 1.052849368241e+006 1.052849368241e+006 1.052849368241e+006 1.052849368241e+006 1.052849368240e+006 1.051902538294e+006 1.051902538294e+006 1.051902538294e+006 1.051902538294e+006 1.051902538294e+006 1.051902538294e+006 1.051902538294e+006 1.051902538294e+006 1.051902538294e+006 1.050949669527e+006 1.050949669527e+006 1.050949669527e+006 1.050949669527e+006 1.050949669527e+006 1.050949669527e+006 1.050949669527e+006 1.050949669528e+006 1.050949669527e+006 1.049956056586e+006 1.049956056586e+006 1.049956056586e+006 1.049956056586e+006 1.049956056586e+006 1.049956056586e+006 1.049956056586e+006 1.049956056586e+006 1.049956056586e+006 1.048955778612e+006 1.048955778613e+006 1.048955778612e+006 1.048955778613e+006 1.048955778612e+006 1.048955778613e+006 1.048955778613e+006 1.048955778613e+006 1.048955778613e+006 1.047982451307e+006 1.047982451307e+006 1.047982451307e+006 1.047982451307e+006 1.047982451307e+006 1.047982451307e+006 1.047982451307e+006 1.047982451307e+006 1.047982451307e+006 1.046953252676e+006 1.046953252676e+006 1.046953252676e+006 1.046953252676e+006 1.046953252676e+006 1.046953252676e+006 1.046953252676e+006 1.046953252676e+006 1.046953252676e+006 1.045918018063e+006 1.045918018063e+006 1.045918018063e+006 1.045918018063e+006 1.045918018063e+006 1.045918018063e+006 1.045918018063e+006 1.045918018063e+006 1.045918018063e+006 1.044868851305e+006 1.044868851304e+006 1.044868851304e+006 1.044868851304e+006 1.044868851304e+006 1.044868851304e+006 1.044868851304e+006 1.044868851304e+006 1.044868851304e+006 1.043800027534e+006 1.043800027534e+006 1.043800027534e+006 1.043800027533e+006 1.043800027534e+006 1.043800027533e+006 1.043800027533e+006 1.043800027534e+006 1.043800027534e+006 1.042745264845e+006 1.042745264845e+006 1.042745264845e+006 1.042745264845e+006 1.042745264845e+006 1.042745264846e+006 1.042745264845e+006 1.042745264845e+006 1.042745264845e+006 1.041681083486e+006 1.041681083484e+006 1.041681083484e+006 1.041681083485e+006 1.041681083485e+006 1.041681083485e+006 1.041681083484e+006 1.041681083485e+006 1.041681083485e+006 1.040588179426e+006 1.040588179426e+006 1.040588179426e+006 1.040588179426e+006 1.040588179426e+006 1.040588179426e+006 1.040588179426e+006 1.040588179426e+006 1.040588179426e+006 1.039480936328e+006 1.039480936329e+006 1.039480936329e+006 1.039480936328e+006 1.039480936329e+006 1.039480936329e+006 1.039480936329e+006 1.039480936329e+006 1.039480936329e+006 1.038387510765e+006 1.038387510766e+006 1.038387510765e+006 1.038387510766e+006 1.038387510766e+006 1.038387510765e+006 1.038387510766e+006 1.038387510765e+006 1.038387510765e+006 1.037260339240e+006 1.037260339239e+006 1.037260339241e+006 1.037260339240e+006 1.037260339240e+006 1.037260339240e+006 1.037260339241e+006 1.037260339241e+006 1.037260339240e+006 1.036087829486e+006 1.036087829486e+006 1.036087829486e+006 1.036087829487e+006 1.036087829486e+006 1.036087829487e+006 1.036087829487e+006 1.036087829487e+006 1.036087829487e+006 1.035012501660e+006 1.035012501659e+006 1.035012501659e+006 1.035012501658e+006 1.035012501657e+006 1.035012501656e+006 1.035012501656e+006 1.035012501656e+006 1.035012501655e+006 1.033927895371e+006 1.033927895371e+006 1.033927895371e+006 1.033927895372e+006 1.033927895373e+006 1.033927895372e+006 1.033927895372e+006 1.033927895373e+006 1.033927895373e+006 1.032731423420e+006 1.032731423420e+006 1.032731423423e+006 1.032731423426e+006 1.032731423429e+006 1.032731423431e+006 1.032731423432e+006 1.032731423433e+006 1.032731423432e+006 1.031518805970e+006 1.031518805970e+006 1.031518805966e+006 1.031518805955e+006 1.031518805947e+006 1.031518805943e+006 1.031518805940e+006 1.031518805939e+006 1.031518805939e+006 1.030531879092e+006 1.030531879092e+006 1.030531879094e+006 1.030531879116e+006 1.030531879126e+006 1.030531879130e+006 1.030531879134e+006 1.030531879136e+006 1.030531879137e+006 1.029193762381e+006 1.029193762381e+006 1.029193762383e+006 1.029193762358e+006 1.029193762351e+006 1.029193762347e+006 1.029193762342e+006 1.029193762341e+006 1.029193762340e+006 1.028238779443e+006 1.028238779447e+006 1.028238779441e+006 1.028238779452e+006 1.028238779449e+006 1.028238779452e+006 1.028238779452e+006 1.028238779453e+006 1.028238779452e+006 1.026942906103e+006 1.026942906104e+006 1.026942906099e+006 1.026942906114e+006 1.026942906112e+006 1.026942906114e+006 1.026942906116e+006 1.026942906115e+006 1.026942906116e+006 1.025795045203e+006 1.025795045202e+006 1.025795045197e+006 1.025795045205e+006 1.025795045201e+006 1.025795045201e+006 1.025795045203e+006 1.025795045202e+006 1.025795045202e+006 1.024709080983e+006 1.024709080982e+006 1.024709080979e+006 1.024709080982e+006 1.024709080979e+006 1.024709080977e+006 1.024709080978e+006 1.024709080978e+006 1.024709080978e+006 1.023570840660e+006 1.023570840658e+006 1.023570840657e+006 1.023570840658e+006 1.023570840656e+006 1.023570840655e+006 1.023570840656e+006 1.023570840655e+006 1.023570840654e+006 1.022459820317e+006 1.022459820316e+006 1.022459820316e+006 1.022459820316e+006 1.022459820316e+006 1.022459820316e+006 1.022459820317e+006 1.022459820316e+006 1.022459820315e+006 1.021303991707e+006 1.021303991707e+006 1.021303991706e+006 1.021303991708e+006 1.021303991707e+006 1.021303991706e+006 1.021303991708e+006 1.021303991707e+006 1.021303991707e+006 1.020177616698e+006 1.020177616698e+006 1.020177616698e+006 1.020177616699e+006 1.020177616699e+006 1.020177616699e+006 1.020177616699e+006 1.020177616699e+006 1.020177616699e+006 1.019124427873e+006 1.019124427873e+006 1.019124427873e+006 1.019124427874e+006 1.019124427874e+006 1.019124427873e+006 1.019124427873e+006 1.019124427874e+006 1.019124427874e+006 1.018034942173e+006 1.018034942172e+006 1.018034942172e+006 1.018034942172e+006 1.018034942173e+006 1.018034942172e+006 1.018034942172e+006 1.018034942172e+006 1.018034942173e+006 1.017013869282e+006 1.017013869282e+006 1.017013869282e+006 1.017013869281e+006 1.017013869280e+006 1.017013869282e+006 1.017013869282e+006 1.017013869281e+006 1.017013869280e+006 1.016062363696e+006 1.016062363696e+006 1.016062363696e+006 1.016062363696e+006 1.016062363695e+006 1.016062363695e+006 1.016062363696e+006 1.016062363696e+006 1.016062363695e+006 1.015224948460e+006 1.015224948460e+006 1.015224948460e+006 1.015224948460e+006 1.015224948460e+006 1.015224948460e+006 1.015224948459e+006 1.015224948459e+006 1.015224948460e+006 1.014532825124e+006 1.014532825124e+006 1.014532825124e+006 1.014532825124e+006 1.014532825124e+006 1.014532825124e+006 1.014532825124e+006 1.014532825124e+006 1.014532825124e+006 1.013840713176e+006 1.013840713176e+006 1.013840713176e+006 1.013840713176e+006 1.013840713176e+006 1.013840713176e+006 1.013840713176e+006 1.013840713176e+006 1.013840713176e+006 1.013148611704e+006 1.013148611704e+006 1.013148611705e+006 1.013148611704e+006 1.013148611705e+006 1.013148611704e+006 1.013148611704e+006 1.013148611704e+006 1.013148611704e+006 1.012456520292e+006 1.012456520293e+006 1.012456520293e+006 1.012456520293e+006 1.012456520293e+006 1.012456520292e+006 1.012456520292e+006 1.012456520292e+006 1.012456520292e+006 1.011764438475e+006 1.011764438474e+006 1.011764438475e+006 1.011764438474e+006 1.011764438475e+006 1.011764438475e+006 1.011764438474e+006 1.011764438474e+006 1.011764438474e+006 1.011072365739e+006 1.011072365739e+006 1.011072365739e+006 1.011072365739e+006 1.011072365739e+006 1.011072365739e+006 1.011072365739e+006 1.011072365739e+006 1.011072365739e+006 1.010380301570e+006 1.010380301570e+006 1.010380301570e+006 1.010380301569e+006 1.010380301569e+006 1.010380301570e+006 1.010380301569e+006 1.010380301569e+006 1.010380301569e+006 1.009688245453e+006 1.009688245454e+006 1.009688245453e+006 1.009688245453e+006 1.009688245453e+006 1.009688245453e+006 1.009688245453e+006 1.009688245453e+006 1.009688245453e+006 1.008996196875e+006 1.008996196875e+006 1.008996196875e+006 1.008996196875e+006 1.008996196875e+006 1.008996196875e+006 1.008996196875e+006 1.008996196874e+006 1.008996196875e+006 1.008304155311e+006 1.008304155311e+006 1.008304155311e+006 1.008304155311e+006 1.008304155311e+006 1.008304155311e+006 1.008304155310e+006 1.008304155310e+006 1.008304155310e+006 1.007612120225e+006 1.007612120225e+006 1.007612120225e+006 1.007612120225e+006 1.007612120225e+006 1.007612120225e+006 1.007612120225e+006 1.007612120225e+006 1.007612120225e+006 1.006920091071e+006 1.006920091071e+006 1.006920091071e+006 1.006920091071e+006 1.006920091071e+006 1.006920091071e+006 1.006920091071e+006 1.006920091071e+006 1.006920091071e+006 1.006228067291e+006 1.006228067291e+006 1.006228067291e+006 1.006228067291e+006 1.006228067291e+006 1.006228067291e+006 1.006228067291e+006 1.006228067291e+006 1.006228067291e+006 1.005536048321e+006 1.005536048321e+006 1.005536048321e+006 1.005536048321e+006 1.005536048321e+006 1.005536048321e+006 1.005536048321e+006 1.005536048321e+006 1.005536048321e+006 1.004844033587e+006 1.004844033587e+006 1.004844033587e+006 1.004844033587e+006 1.004844033587e+006 1.004844033587e+006 1.004844033587e+006 1.004844033587e+006 1.004844033587e+006 1.004152022512e+006 1.004152022512e+006 1.004152022512e+006 1.004152022512e+006 1.004152022512e+006 1.004152022512e+006 1.004152022512e+006 1.004152022512e+006 1.004152022512e+006 1.003460014513e+006 1.003460014513e+006 1.003460014513e+006 1.003460014513e+006 1.003460014513e+006 1.003460014513e+006 1.003460014513e+006 1.003460014513e+006 1.003460014513e+006 1.002768009002e+006 1.002768009002e+006 1.002768009002e+006 1.002768009002e+006 1.002768009002e+006 1.002768009002e+006 1.002768009002e+006 1.002768009002e+006 1.002768009002e+006 1.002076005389e+006 1.002076005389e+006 1.002076005389e+006 1.002076005389e+006 1.002076005389e+006 1.002076005389e+006 1.002076005389e+006 1.002076005390e+006 1.002076005389e+006 1.001384003082e+006 1.001384003082e+006 1.001384003082e+006 1.001384003082e+006 1.001384003082e+006 1.001384003082e+006 1.001384003082e+006 1.001384003082e+006 1.001384003082e+006 1.000692001484e+006 1.000692001484e+006 1.000692001484e+006 1.000692001484e+006 1.000692001484e+006 1.000692001484e+006 1.000692001484e+006 1.000692001484e+006 1.000692001484e+006 1.000000000000e+006 1.000000000000e+006 1.000000000000e+006 1.000000000000e+006 1.000000000000e+006 1.000000000000e+006 1.000000000000e+006 1.000000000000e+006 1.000000000000e+006 
        </DataArray>
        <DataArray type="Float64" Name="MOLAR_FRACTION" format="ascii">