<?xml version="1.0"?>
<VTKFile type="UnstructuredGrid" version="0.1" byte_order="LittleEndian">
  <UnstructuredGrid>
    <Piece NumberOfPoints="909" NumberOfCells="800">
      <Points>
        <DataArray type="Float64" NumberOfComponents="3" format="ascii">
          0.000000000000e+000 0.000000000000e+000 0.000000000000e+000
          2.000000000000e+000 0.000000000000e+000 0.000000000000e+000
          2.000000000000e+000 2.500000000000e+000 0.000000000000e+000
          0.000000000000e+000 2.500000000000e+000 0.000000000000e+000
          2.000000000000e+000 5.000000000000e+000 0.000000000000e+000
          0.000000000000e+000 5.000000000000e+000 0.000000000000e+000
          2.000000000000e+000 7.500000000000e+000 0.000000000000e+000
          0.000000000000e+000 7.500000000000e+000 0.000000000000e+000
          2.000000000000e+000 1.000000000000e+001 0.000000000000e+000
          0.000000000000e+000 1.000000000000e+001 0.000000000000e+000
          2.000000000000e+000 1.250000000000e+001 0.000000000000e+000
          0.000000000000e+000 1.250000000000e+001 0.000000000000e+000
          2.000000000000e+000 1.500000000000e+001 0.000000000000e+000
          0.000000000000e+000 1.500000000000e+001 0.000000000000e+000
          2.000000000000e+000 1.750000000000e+001 0.000000000000e+000
          0.000000000000e+000 1.750000000000e+001 0.000000000000e+000
          2.000000000000e+000 2.000000000000e+001 0.000000000000e+000
          0.000000000000e+000 2.000000000000e+001 0.000000000000e+000
          4.000000000000e+000 0.000000000000e+000 0.000000000000e+000
          4.000000000000e+000 2.500000000000e+000 0.000000000000e+000
          4.000000000000e+000 5.000000000000e+000 0.000000000000e+000
          4.000000000000e+000 7.500000000000e+000 0.000000000000e+000
          4.000000000000e+000 1.000000000000e+001 0.000000000000e+000
          4.000000000000e+000 1.250000000000e+001 0.000000000000e+000
          4.000000000000e+000 1.500000000000e+001 0.000000000000e+000
          4.000000000000e+000 1.750000000000e+001 0.000000000000e+000
          4.000000000000e+000 2.000000000000e+001 0.000000000000e+000
          6.000000000000e+000 0.000000000000e+000 0.000000000000e+000
          6.000000000000e+000 2.500000000000e+000 0.000000000000e+000
          6.000000000000e+000 5.000000000000e+000 0.000000000000e+000
          6.000000000000e+000 7.500000000000e+000 0.000000000000e+000
          6.000000000000e+000 1.000000000000e+001 0.000000000000e+000
          6.000000000000e+000 1.250000000000e+001 0.000000000000e+000
          6.000000000000e+000 1.500000000000e+001 0.000000000000e+000
          6.000000000000e+000 1.750000000000e+001 0.000000000000e+000
          6.000000000000e+000 2.000000000000e+001 0.000000000000e+000
          8.000000000000e+000 0.000000000000e+000 0.000000000000e+000
          8.000000000000e+000 2.500000000000e+000 0.000000000000e+000
          8.000000000000e+000 5.000000000000e+000 0.000000000000e+000
          8.000000000000e+000 7.500000000000e+000 0.000000000000e+000
          8.000000000000e+000 1.000000000000e+001 0.000000000000e+000
          8.000000000000e+000 1.250000000000e+001 0.000000000000e+000
          8.000000000000e+000 1.500000000000e+001 0.000000000000e+000
          8.000000000000e+000 1.750000000000e+001 0.000000000000e+000
          8.000000000000e+000 2.000000000000e+001 0.000000000000e+000
          1.000000000000e+001 0.000000000000e+000 0.000000000000e+000
          1.000000000000e+001 2.500000000000e+000 0.000000000000e+000
          1.000000000000e+001 5.000000000000e+000 0.000000000000e+000
          1.000000000000e+001 7.500000000000e+000 0.000000000000e+000
          1.000000000000e+001 1.000000000000e+001 0.000000000000e+000
          1.000000000000e+001 1.250000000000e+001 0.000000000000e+000
          1.000000000000e+001 1.500000000000e+001 0.000000000000e+000
          1.000000000000e+001 1.750000000000e+001 0.000000000000e+000
          1.000000000000e+001 2.000000000000e+001 0.000000000000e+000
          1.200000000000e+001 0.000000000000e+000 0.000000000000e+000
          1.200000000000e+001 2.500000000000e+000 0.000000000000e+000
          1.200000000000e+001 5.000000000000e+000 0.000000000000e+000
          1.200000000000e+001 7.500000000000e+000 0.000000000000e+000
          1.200000000000e+001 1.000000000000e+001 0.000000000000e+000
          1.200000000000e+001 1.250000000000e+001 0.000000000000e+000
          1.200000000000e+001 1.500000000000e+001 0.000000000000e+000
          1.200000000000e+001 1.750000000000e+001 0.000000000000e+000
          1.200000000000e+001 2.000000000000e+001 0.000000000000e+000
          1.400000000000e+001 0.000000000000e+000 0.000000000000e+000
          1.400000000000e+001 2.500000000000e+000 0.000000000000e+000
          1.400000000000e+001 5.000000000000e+000 0.000000000000e+000
          1.400000000000e+001 7.500000000000e+000 0.000000000000e+000
          1.400000000000e+001 1.000000000000e+001 0.000000000000e+000
          1.400000000000e+001 1.250000000000e+001 0.000000000000e+000
          1.400000000000e+001 1.500000000000e+001 0.000000000000e+000
          1.400000000000e+001 1.750000000000e+001 0.000000000000e+000
          1.400000000000e+001 2.000000000000e+001 0.000000000000e+000
          1.600000000000e+001 0.000000000000e+000 0.000000000000e+000
          1.600000000000e+001 2.500000000000e+000 0.000000000000e+000
          1.600000000000e+001 5.000000000000e+000 0.000000000000e+000
          1.600000000000e+001 7.500000000000e+000 0.000000000000e+000
          1.600000000000e+001 1.000000000000e+001 0.000000000000e+000
          1.600000000000e+001 1.250000000000e+001 0.000000000000e+000
          1.600000000000e+001 1.500000000000e+001 0.000000000000e+000
          1.600000000000e+001 1.750000000000e+001 0.000000000000e+000
          1.600000000000e+001 2.000000000000e+001 0.000000000000e+000
          1.800000000000e+001 0.000000000000e+000 0.000000000000e+000
          1.800000000000e+001 2.500000000000e+000 0.000000000000e+000
          1.800000000000e+001 5.000000000000e+000 0.000000000000e+000
          1.800000000000e+001 7.500000000000e+000 0.000000000000e+000
          1.800000000000e+001 1.000000000000e+001 0.000000000000e+000
          1.800000000000e+001 1.250000000000e+001 0.000000000000e+000
          1.800000000000e+001 1.500000000000e+001 0.000000000000e+000
          1.800000000000e+001 1.750000000000e+001 0.000000000000e+000
          1.800000000000e+001 2.000000000000e+001 0.000000000000e+000
          2.000000000000e+001 0.000000000000e+000 0.000000000000e+000
          2.000000000000e+001 2.500000000000e+000 0.000000000000e+000
          2.000000000000e+001 5.000000000000e+000 0.000000000000e+000
          2.000000000000e+001 7.500000000000e+000 0.000000000000e+000
          2.000000000000e+001 1.000000000000e+001 0.000000000000e+000
          2.000000000000e+001 1.250000000000e+001 0.000000000000e+000
          2.000000000000e+001 1.500000000000e+001 0.000000000000e+000
          2.000000000000e+001 1.750000000000e+001 0.000000000000e+000
          2.000000000000e+001 2.000000000000e+001 0.000000000000e+000
          2.200000000000e+001 0.000000000000e+000 0.000000000000e+000
          2.200000000000e+001 2.500000000000e+000 0.000000000000e+000
          2.200000000000e+001 5.000000000000e+000 0.000000000000e+000
          2.200000000000e+001 7.500000000000e+000 0.000000000000e+000
          2.200000000000e+001 1.000000000000e+001 0.000000000000e+000
          2.200000000000e+001 1.250000000000e+001 0.000000000000e+000
          2.200000000000e+001 1.500000000000e+001 0.000000000000e+000
          2.200000000000e+001 1.750000000000e+001 0.000000000000e+000
          2.200000000000e+001 2.000000000000e+001 0.000000000000e+000
          2.400000000000e+001 0.000000000000e+000 0.000000000000e+000
          2.400000000000e+001 2.500000000000e+000 0.000000000000e+000
          2.400000000000e+001 5.000000000000e+000 0.000000000000e+000
          2.400000000000e+001 7.500000000000e+000 0.000000000000e+000
          2.400000000000e+001 1.000000000000e+001 0.000000000000e+000
          2.400000000000e+001 1.250000000000e+001 0.000000000000e+000
          2.400000000000e+001 1.500000000000e+001 0.000000000000e+000
          2.400000000000e+001 1.750000000000e+001 0.000000000000e+000
          2.400000000000e+001 2.000000000000e+001 0.000000000000e+000
          2.600000000000e+001 0.000000000000e+000 0.000000000000e+000
          2.600000000000e+001 2.500000000000e+000 0.000000000000e+000
          2.600000000000e+001 5.000000000000e+000 0.000000000000e+000
          2.600000000000e+001 7.500000000000e+000 0.000000000000e+000
          2.600000000000e+001 1.000000000000e+001 0.000000000000e+000
          2.600000000000e+001 1.250000000000e+001 0.000000000000e+000
          2.600000000000e+001 1.500000000000e+001 0.000000000000e+000
          2.600000000000e+001 1.750000000000e+001 0.000000000000e+000
          2.600000000000e+001 2.000000000000e+001 0.000000000000e+000
          2.800000000000e+001 0.000000000000e+000 0.000000000000e+000
          2.800000000000e+001 2.500000000000e+000 0.000000000000e+000
          2.800000000000e+001 5.000000000000e+000 0.000000000000e+000
          2.800000000000e+001 7.500000000000e+000 0.000000000000e+000
          2.800000000000e+001 1.000000000000e+001 0.000000000000e+000
          2.800000000000e+001 1.250000000000e+001 0.000000000000e+000
          2.800000000000e+001 1.500000000000e+001 0.000000000000e+000
          2.800000000000e+001 1.750000000000e+001 0.000000000000e+000
          2.800000000000e+001 2.000000000000e+001 0.000000000000e+000
          3.000000000000e+001 0.000000000000e+000 0.000000000000e+000
          3.000000000000e+001 2.500000000000e+000 0.000000000000e+000
          3.000000000000e+001 5.000000000000e+000 0.000000000000e+000
          3.000000000000e+001 7.500000000000e+000 0.000000000000e+000
[...]
      <PointData Scalars="LIQUID_PRESSURE">
        <DataArray type="Float64" Name="LIQUID_PRESSURE" format="ascii">
          1.076847778721e+006 1.076777275218e+006 1.076777275217e+006 1.076847778620e+006 1.076777275208e+006 1.076847778521e+006 1.076777275132e+006 1.076847778547e+006 1.076777275070e+006 1.076847778426e+006 1.076777274976e+006 1.076847778151e+006 1.076777274851e+006 1.076847777942e+006 1.076777274762e+006 1.076847777758e+006 1.076777274740e+006 1.076847777642e+006 1.076540439008e+006 1.076540439042e+006 1.076540439046e+006 1.076540438983e+006 1.076540438938e+006 1.076540438917e+006 1.076540438872e+006 1.076540438852e+006 1.076540438855e+006 1.076184652253e+006 1.076184652278e+006 1.076184652290e+006 1.076184652258e+006 1.076184652245e+006 1.076184652243e+006 1.076184652242e+006 1.076184652247e+006 1.076184652246e+006 1.075715535244e+006 1.075715535261e+006 1.075715535282e+006 1.075715535266e+006 1.075715535268e+006 1.075715535279e+006 1.075715535299e+006 1.075715535311e+006 1.075715535314e+006 1.075115698387e+006 1.075115698399e+006 1.075115698412e+006 1.075115698417e+006 1.075115698418e+006 1.075115698444e+006 1.075115698465e+006 1.075115698477e+006 1.075115698488e+006 1.074377102449e+006 1.074377102460e+006 1.074377102470e+006 1.074377102478e+006 1.074377102486e+006 1.074377102510e+006 1.074377102529e+006 1.074377102545e+006 1.074377102549e+006 1.073523827683e+006 1.073523827687e+006 1.073523827692e+006 1.073523827697e+006 1.073523827712e+006 1.073523827724e+006 1.073523827746e+006 1.073523827758e+006 1.073523827766e+006 1.072593001066e+006 1.072593001064e+006 1.072593001067e+006 1.072593001067e+006 1.072593001080e+006 1.072593001094e+006 1.072593001109e+006 1.072593001126e+006 1.072593001124e+006 1.071799887684e+006 1.071799887679e+006 1.071799887679e+006 1.071799887678e+006 1.071799887684e+006 1.071799887693e+006 1.071799887708e+006 1.071799887721e+006 1.071799887725e+006 1.071006938479e+006 1.071006938479e+006 1.071006938476e+006 1.071006938471e+006 1.071006938476e+006 1.071006938483e+006 1.071006938492e+006 1.071006938506e+006 1.071006938508e+006 1.070214145471e+006 1.070214145474e+006 1.070214145469e+006 1.070214145467e+006 1.070214145467e+006 1.070214145470e+006 1.070214145486e+006 1.070214145489e+006 1.070214145495e+006 1.069421503797e+006 1.069421503798e+006 1.069421503795e+006 1.069421503795e+006 1.069421503793e+006 1.069421503800e+006 1.069421503802e+006 1.069421503808e+006 1.069421503810e+006 1.068629010220e+006 1.068629010218e+006 1.068629010223e+006 1.068629010223e+006 1.068629010226e+006 1.068629010226e+006 1.068629010227e+006 1.068629010228e+006 1.068629010230e+006 1.067836662338e+006 1.067836662342e+006 1.067836662340e+006 1.067836662347e+006 1.067836662346e+006 1.067836662350e+006 1.067836662350e+006 1.067836662352e+006 1.067836662349e+006 1.067044458132e+006 1.067044458134e+006 1.067044458138e+006 1.067044458139e+006 1.067044458144e+006 1.067044458143e+006 1.067044458147e+006 1.067044458145e+006 1.067044458144e+006 1.066252395742e+006 1.066252395738e+006 1.066252395742e+006 1.066252395744e+006 1.066252395746e+006 1.066252395753e+006 1.066252395752e+006 1.066252395753e+006 1.066252395752e+006 1.065460473310e+006 1.065460473311e+006 1.065460473312e+006 1.065460473317e+006 1.065460473319e+006 1.065460473322e+006 1.065460473325e+006 1.065460473328e+006 1.065460473325e+006 1.064668688948e+006 1.064668688949e+006 1.064668688949e+006 1.064668688952e+006 1.064668688957e+006 1.064668688961e+006 1.064668688961e+006 1.064668688962e+006 1.064668688963e+006 1.063877040697e+006 1.063877040696e+006 1.063877040696e+006 1.063877040698e+006 1.063877040702e+006 1.063877040703e+006 1.063877040704e+006 1.063877040703e+006 1.063877040706e+006 1.063085526526e+006 1.063085526524e+006 1.063085526526e+006 1.063085526526e+006 1.063085526527e+006 1.063085526530e+006 1.063085526529e+006 1.063085526529e+006 1.063085526529e+006 1.062294144338e+006 1.062294144337e+006 1.062294144339e+006 1.062294144337e+006 1.062294144338e+006 1.062294144338e+006 1.062294144337e+006 1.062294144338e+006 1.062294144336e+006 1.061502891978e+006 1.061502891976e+006 1.061502891978e+006 1.061502891978e+006 1.061502891977e+006 1.061502891977e+006 1.061502891976e+006 1.061502891977e+006 1.061502891976e+006 1.060711767242e+006 1.060711767242e+006 1.060711767242e+006 1.060711767242e+006 1.060711767240e+006 1.060711767241e+006 1.060711767239e+006 1.060711767239e+006 1.060711767240e+006 1.059920767872e+006 1.059920767870e+006 1.059920767871e+006 1.059920767869e+006 1.059920767869e+006 1.059920767867e+006 1.059920767867e+006 1.059920767867e+006 1.059920767867e+006 1.059129891567e+006 1.059129891566e+006 1.059129891566e+006 1.059129891567e+006 1.059129891565e+006 1.059129891565e+006 1.059129891564e+006 1.059129891564e+006 1.059129891563e+006 1.058339135988e+006 1.058339135986e+006 1.058339135987e+006 1.058339135987e+006 1.058339135987e+006 1.058339135986e+006 1.058339135985e+006 1.058339135986e+006 1.058339135984e+006 1.057548498748e+006 1.057548498749e+006 1.057548498749e+006 1.057548498749e+006 1.057548498749e+006 1.057548498748e+006 1.057548498748e+006 1.057548498748e+006 1.057548498748e+006 1.056757977440e+006 1.056757977441e+006 1.056757977440e+006 1.056757977440e+006 1.056757977440e+006 1.056757977439e+006 1.056757977439e+006 1.056757977440e+006 1.056757977439e+006 1.055967569614e+006 1.055967569614e+006 1.055967569614e+006 1.055967569614e+006 1.055967569613e+006 1.055967569613e+006 1.055967569613e+006 1.055967569614e+006 1.055967569614e+006 1.055177272793e+006 1.055177272793e+006 1.055177272793e+006 1.055177272793e+006 1.055177272793e+006 1.055177272793e+006 1.055177272794e+006 1.055177272795e+006 1.055177272795e+006 1.054387084481e+006 1.054387084481e+006 1.054387084481e+006 1.054387084480e+006 1.054387084480e+006 1.054387084481e+006 1.054387084482e+006 1.054387084483e+006 1.054387084483e+006 1.053597002153e+006 1.053597002153e+006 1.053597002153e+006 1.053597002153e+006 1.053597002153e+006 1.053597002154e+006 1.053597002155e+006 1.053597002155e+006 1.053597002155e+006 1.052807023272e+006 1.052807023272e+006 1.052807023271e+006 1.052807023271e+006 1.052807023271e+006 1.052807023272e+006 1.052807023272e+006 1.052807023273e+006 1.052807023272e+006 1.052017145279e+006 1.052017145279e+006 1.052017145279e+006 1.052017145278e+006 1.052017145279e+006 1.052017145279e+006 1.052017145279e+006 1.052017145279e+006 1.052017145278e+006 1.051227365610e+006 1.051227365610e+006 1.051227365610e+006 1.051227365609e+006 1.051227365609e+006 1.051227365609e+006 1.051227365609e+006 1.051227365609e+006 1.051227365608e+006 1.050437681687e+006 1.050437681687e+006 1.050437681687e+006 1.050437681687e+006 1.050437681687e+006 1.050437681686e+006 1.050437681686e+006 1.050437681686e+006 1.050437681686e+006 1.049648090935e+006 1.049648090935e+006 1.049648090935e+006 1.049648090935e+006 1.049648090935e+006 1.049648090934e+006 1.049648090934e+006 1.049648090934e+006 1.049648090934e+006 1.048858590775e+006 1.048858590775e+006 1.048858590775e+006 1.048858590775e+006 1.048858590775e+006 1.048858590775e+006 1.048858590775e+006 1.048858590774e+006 1.048858590774e+006 1.048069178630e+006 1.048069178630e+006 1.048069178630e+006 1.048069178630e+006 1.048069178630e+006 1.048069178630e+006 1.048069178630e+006 1.048069178630e+006 1.048069178629e+006 1.047279851935e+006 1.047279851935e+006 1.047279851935e+006 1.047279851935e+006 1.047279851935e+006 1.047279851935e+006 1.047279851935e+006 1.047279851935e+006 1.047279851935e+006 1.046490608129e+006 1.046490608129e+006 1.046490608129e+006 1.046490608129e+006 1.046490608129e+006 1.046490608129e+006 1.046490608129e+006 1.046490608129e+006 1.046490608129e+006 1.045701444666e+006 1.045701444666e+006 1.045701444666e+006 1.045701444666e+006 1.045701444666e+006 1.045701444666e+006 1.045701444666e+006 1.045701444666e+006 1.045701444666e+006 1.044912359019e+006 1.044912359019e+006 1.044912359019e+006 1.044912359019e+006 1.044912359019e+006 1.044912359019e+006 1.044912359019e+006 1.044912359019e+006 1.044912359019e+006 1.044123348681e+006 1.044123348681e+006 1.044123348681e+006 1.044123348681e+006 1.044123348681e+006 1.044123348682e+006 1.044123348681e+006 1.044123348681e+006 1.044123348681e+006 1.043334411166e+006 1.043334411166e+006 1.043334411166e+006 1.043334411166e+006 1.043334411166e+006 1.043334411166e+006 1.043334411166e+006 1.043334411166e+006 1.043334411166e+006 1.042545544015e+006 1.042545544015e+006 1.042545544015e+006 1.042545544015e+006 1.042545544015e+006 1.042545544015e+006 1.042545544015e+006 1.042545544015e+006 1.042545544015e+006 1.041756744797e+006 1.041756744797e+006 1.041756744797e+006 1.041756744797e+006 1.041756744797e+006 1.041756744797e+006 1.041756744797e+006 1.041756744797e+006 1.041756744797e+006 1.040968011113e+006 1.040968011113e+006 1.040968011113e+006 1.040968011113e+006 1.040968011113e+006 1.040968011113e+006 1.040968011113e+006 1.040968011113e+006 1.040968011114e+006 1.040179340599e+006 1.040179340599e+006 1.040179340599e+006 1.040179340599e+006 1.040179340599e+006 1.040179340600e+006 1.040179340600e+006 1.040179340600e+006 1.040179340600e+006 1.039390730928e+006 1.039390730928e+006 1.039390730928e+006 1.039390730928e+006 1.039390730928e+006 1.039390730928e+006 1.039390730928e+006 1.039390730928e+006 1.039390730928e+006 1.038602179808e+006 1.038602179808e+006 1.038602179808e+006 1.038602179808e+006 1.038602179808e+006 1.038602179809e+006 1.038602179809e+006 1.038602179808e+006 1.038602179808e+006 1.037813684993e+006 1.037813684993e+006 1.037813684993e+006 1.037813684993e+006 1.037813684993e+006 1.037813684993e+006 1.037813684993e+006 1.037813684993e+006 1.037813684993e+006 1.037025244274e+006 1.037025244274e+006 1.037025244274e+006 1.037025244274e+006 1.037025244274e+006 1.037025244274e+006 1.037025244274e+006 1.037025244274e+006 1.037025244274e+006 1.036236855490e+006 1.036236855490e+006 1.036236855490e+006 1.036236855490e+006 1.036236855490e+006 1.036236855490e+006 1.036236855490e+006 1.036236855490e+006 1.036236855490e+006 1.035448516525e+006 1.035448516525e+006 1.035448516525e+006 1.035448516525e+006 1.035448516525e+006 1.035448516525e+006 1.035448516525e+006 1.035448516525e+006 1.035448516525e+006 1.034660225310e+006 1.034660225310e+006 1.034660225310e+006 1.034660225310e+006 1.034660225310e+006 1.034660225310e+006 1.034660225310e+006 1.034660225310e+006 1.034660225310e+006 1.033871979823e+006 1.033871979823e+006 1.033871979823e+006 1.033871979823e+006 1.033871979823e+006 1.033871979823e+006 1.033871979823e+006 1.033871979823e+006 1.033871979823e+006 1.033083778093e+006 1.033083778093e+006 1.033083778093e+006 1.033083778093e+006 1.033083778093e+006 1.033083778093e+006 1.033083778093e+006 1.033083778093e+006 1.033083778093e+006 1.032295618200e+006 1.032295618200e+006 1.032295618200e+006 1.032295618200e+006 1.032295618200e+006 1.032295618200e+006 1.032295618200e+006 1.032295618199e+006 1.032295618199e+006 1.031507498272e+006 1.031507498272e+006 1.031507498272e+006 1.031507498272e+006 1.031507498272e+006 1.031507498272e+006 1.031507498272e+006 1.031507498272e+006 1.031507498272e+006 1.030719416491e+006 1.030719416491e+006 1.030719416490e+006 1.030719416491e+006 1.030719416490e+006 1.030719416490e+006 1.030719416490e+006 1.030719416490e+006 1.030719416490e+006 1.029931371089e+006 1.029931371089e+006 1.029931371089e+006 1.029931371089e+006 1.029931371089e+006 1.029931371089e+006 1.029931371089e+006 1.029931371089e+006 1.029931371089e+006 1.029143360353e+006 1.029143360353e+006 1.029143360353e+006 1.029143360353e+006 1.029143360353e+006 1.029143360353e+006 1.029143360353e+006 1.029143360353e+006 1.029143360353e+006 1.028355382619e+006 1.028355382619e+006 1.028355382619e+006 1.028355382619e+006 1.028355382619e+006 1.028355382619e+006 1.028355382619e+006 1.028355382619e+006 1.028355382619e+006 1.027567436278e+006 1.027567436278e+006 1.027567436278e+006 1.027567436278e+006 1.027567436278e+006 1.027567436278e+006 1.027567436278e+006 1.027567436278e+006 1.027567436278e+006 1.026779519770e+006 1.026779519770e+006 1.026779519770e+006 1.026779519770e+006 1.026779519770e+006 1.026779519770e+006 1.026779519770e+006 1.026779519770e+006 1.026779519770e+006 1.025991631590e+006 1.025991631590e+006 1.025991631590e+006 1.025991631590e+006 1.025991631590e+006 1.025991631590e+006 1.025991631590e+006 1.025991631590e+006 1.025991631590e+006 1.025203770282e+006 1.025203770282e+006 1.025203770282e+006 1.025203770282e+006 1.025203770282e+006 1.025203770282e+006 1.025203770282e+006 1.025203770282e+006 1.025203770282e+006 1.024415934442e+006 1.024415934442e+006 1.024415934442e+006 1.024415934442e+006 1.024415934442e+006 1.024415934442e+006 1.024415934442e+006 1.024415934442e+006 1.024415934442e+006 1.023628122715e+006 1.023628122715e+006 1.023628122715e+006 1.023628122715e+006 1.023628122715e+006 1.023628122715e+006 1.023628122715e+006 1.023628122715e+006 1.023628122715e+006 1.022840333797e+006 1.022840333797e+006 1.022840333797e+006 1.022840333797e+006 1.022840333797e+006 1.022840333797e+006 1.022840333797e+006 1.022840333797e+006 1.022840333797e+006 1.022052566431e+006 1.022052566431e+006 1.022052566431e+006 1.022052566431e+006 1.022052566431e+006 1.022052566431e+006 1.022052566431e+006 1.022052566431e+006 1.022052566431e+006 1.021264819407e+006 1.021264819407e+006 1.021264819407e+006 1.021264819407e+006 1.021264819407e+006 1.021264819407e+006 1.021264819407e+006 1.021264819407e+006 1.021264819407e+006 1.020477091565e+006 1.020477091565e+006 1.020477091565e+006 1.020477091565e+006 1.020477091565e+006 1.020477091565e+006 1.020477091565e+006 1.020477091565e+006 1.020477091565e+006 1.019689381785e+006 1.019689381785e+006 1.019689381785e+006 1.019689381785e+006 1.019689381785e+006 1.019689381785e+006 1.019689381785e+006 1.019689381785e+006 1.019689381785e+006 1.018901688997e+006 1.018901688997e+006 1.018901688997e+006 1.018901688997e+006 1.018901688997e+006 1.018901688997e+006 1.018901688997e+006 1.018901688997e+006 1.018901688997e+006 1.018114012169e+006 1.018114012169e+006 1.018114012169e+006 1.018114012169e+006 1.018114012169e+006 1.018114012169e+006 1.018114012169e+006 1.018114012169e+006 1.018114012169e+006 1.017326350313e+006 1.017326350313e+006 1.017326350313e+006 1.017326350313e+006 1.017326350313e+006 1.017326350313e+006 1.017326350313e+006 1.017326350313e+006 1.017326350313e+006 1.016538702480e+006 1.016538702480e+006 1.016538702480e+006 1.016538702480e+006 1.016538702480e+006 1.016538702480e+006 1.016538702480e+006 1.016538702480e+006 1.016538702480e+006 1.015751067761e+006 1.015751067761e+006 1.015751067762e+006 1.015751067762e+006 1.015751067762e+006 1.015751067762e+006 1.015751067762e+006 1.015751067762e+006 1.015751067762e+006 1.014963445284e+006 1.014963445284e+006 1.014963445284e+006 1.014963445284e+006 1.014963445284e+006 1.014963445284e+006 1.014963445284e+006 1.014963445284e+006 1.014963445284e+006 1.014175834212e+006 1.014175834212e+006 1.014175834212e+006 1.014175834212e+006 1.014175834212e+006 1.014175834212e+006 1.014175834212e+006 1.014175834212e+006 1.014175834212e+006 1.013388233740e+006 1.013388233740e+006 1.013388233740e+006 1.013388233740e+006 1.013388233740e+006 1.013388233740e+006 1.013388233740e+006 1.013388233740e+006 1.013388233740e+006 1.012600643100e+006 1.012600643100e+006 1.012600643100e+006 1.012600643100e+006 1.012600643100e+006 1.012600643100e+006 1.012600643100e+006 1.012600643100e+006 1.012600643100e+006 1.011813061552e+006 1.011813061552e+006 1.011813061552e+006 1.011813061552e+006 1.011813061552e+006 1.011813061552e+006 1.011813061552e+006 1.011813061552e+006 1.011813061552e+006 1.011025488384e+006 1.011025488384e+006 1.011025488384e+006 1.011025488384e+006 1.011025488384e+006 1.011025488384e+006 1.011025488384e+006 1.011025488384e+006 1.011025488384e+006 1.010237922913e+006 1.010237922913e+006 1.010237922913e+006 1.010237922913e+006 1.010237922913e+006 1.010237922913e+006 1.010237922913e+006 1.010237922913e+006 1.010237922913e+006 1.009450364481e+006 1.009450364481e+006 1.009450364481e+006 1.009450364481e+006 1.009450364481e+006 1.009450364481e+006 1.009450364481e+006 1.009450364481e+006 1.009450364481e+006 1.008662812455e+006 1.008662812455e+006 1.008662812455e+006 1.008662812455e+006 1.008662812455e+006 1.008662812455e+006 1.008662812455e+006 1.008662812455e+006 1.008662812455e+006 1.007875266222e+006 1.007875266222e+006 1.007875266222e+006 1.007875266222e+006 1.007875266223e+006 1.007875266223e+006 1.007875266222e+006 1.007875266223e+006 1.007875266223e+006 1.007087725191e+006 1.007087725191e+006 1.007087725191e+006 1.007087725191e+006 1.007087725191e+006 1.007087725191e+006 1.007087725191e+006 1.007087725191e+006 1.007087725191e+006 1.006300188788e+006 1.006300188788e+006 1.006300188788e+006 1.006300188788e+006 1.006300188788e+006 1.006300188788e+006 1.006300188788e+006 1.006300188788e+006 1.006300188788e+006 1.005512656457e+006 1.005512656457e+006 1.005512656457e+006 1.005512656457e+006 1.005512656457e+006 1.005512656457e+006 1.005512656457e+006 1.005512656457e+006 1.005512656457e+006 1.004725127654e+006 1.004725127654e+006 1.004725127654e+006 1.004725127654e+006 1.004725127654e+006 1.004725127654e+006 1.004725127654e+006 1.004725127654e+006 1.004725127654e+006 1.003937601852e+006 1.003937601853e+006 1.003937601853e+006 1.003937601853e+006 1.003937601853e+006 1.003937601853e+006 1.003937601853e+006 1.003937601853e+006 1.003937601853e+006 1.003150078533e+006 1.003150078533e+006 1.003150078533e+006 1.003150078533e+006 1.003150078533e+006 1.003150078533e+006 1.003150078533e+006 1.003150078533e+006 1.003150078533e+006 1.002362557187e+006 1.002362557187e+006 1.002362557187e+006 1.002362557187e+006 1.002362557187e+006 1.002362557187e+006 1.002362557187e+006 1.002362557187e+006 1.002362557187e+006 1.001575037312e+006 1.001575037312e+006 1.001575037312e+006 1.001575037312e+006 1.001575037312e+006 1.001575037312e+006 1.001575037312e+006 1.001575037312e+006 1.001575037312e+006 1.000787518414e+006 1.000787518414e+006 1.000787518414e+006 1.000787518414e+006 1.000787518414e+006 1.000787518414e+006 1.000787518414e+006 1.000787518414e+006 1.000787518414e+006 1.000000000000e+006 1.000000000000e+006 1.000000000000e+006 1.000000000000e+006 1.000000000000e+006 1.000000000000e+006 1.000000000000e+006 1.000000000000e+006 1.000000000000e+006 
        </DataArray>
        <DataArray type="Float64" Name="MOLAR_FRACTION" format="ascii">