<?xml version="1.0"?>
<VTKFile type="UnstructuredGrid" version="0.1" byte_order="LittleEndian">
  <UnstructuredGrid>
    <Piece NumberOfPoints="909" NumberOfCells="800">
      <Points>
        <DataArray type="Float64" NumberOfComponents="3" format="ascii">
          0.000000000000e+000 0.000000000000e+000 0.000000000000e+000
          2.000000000000e+000 0.000000000000e+000 0.000000000000e+000
          2.000000000000e+000 2.500000000000e+000 0.000000000000e+000
          0.000000000000e+000 2.500000000000e+000 0.000000000000e+000
          2.000000000000e+000 5.000000000000e+000 0.000000000000e+000
          0.000000000000e+000 5.000000000000e+000 0.000000000000e+000
          2.000000000000e+000 7.500000000000e+000 0.000000000000e+000
          0.000000000000e+000 7.500000000000e+000 0.000000000000e+000
          2.000000000000e+000 1.000000000000e+001 0.000000000000e+000
          0.000000000000e+000 1.000000000000e+001 0.000000000000e+000
          2.000000000000e+000 1.250000000000e+001 0.000000000000e+000
          0.000000000000e+000 1.250000000000e+001 0.000000000000e+000
          2.000000000000e+000 1.500000000000e+001 0.000000000000e+000
          0.000000000000e+000 1.500000000000e+001 0.000000000000e+000
          2.000000000000e+000 1.750000000000e+001 0.000000000000e+000
          0.000000000000e+000 1.750000000000e+001 0.000000000000e+000
          2.000000000000e+000 2.000000000000e+001 0.000000000000e+000
          0.000000000000e+000 2.000000000000e+001 0.000000000000e+000
          4.000000000000e+000 0.000000000000e+000 0.000000000000e+000
          4.000000000000e+000 2.500000000000e+000 0.000000000000e+000
          4.000000000000e+000 5.000000000000e+000 0.000000000000e+000
          4.000000000000e+000 7.500000000000e+000 0.000000000000e+000
          4.000000000000e+000 1.000000000000e+001 0.000000000000e+000
          4.000000000000e+000 1.250000000000e+001 0.000000000000e+000
          4.000000000000e+000 1.500000000000e+001 0.000000000000e+000
          4.000000000000e+000 1.750000000000e+001 0.000000000000e+000
          4.000000000000e+000 2.000000000000e+001 0.000000000000e+000
          6.000000000000e+000 0.000000000000e+000 0.000000000000e+000
          6.000000000000e+000 2.500000000000e+000 0.000000000000e+000
          6.000000000000e+000 5.000000000000e+000 0.000000000000e+000
          6.000000000000e+000 7.500000000000e+000 0.000000000000e+000
          6.000000000000e+000 1.000000000000e+001 0.000000000000e+000
          6.000000000000e+000 1.250000000000e+001 0.000000000000e+000
          6.000000000000e+000 1.500000000000e+001 0.000000000000e+000
          6.000000000000e+000 1.750000000000e+001 0.000000000000e+000
          6.000000000000e+000 2.000000000000e+001 0.000000000000e+000
          8.000000000000e+000 0.000000000000e+000 0.000000000000e+000
          8.000000000000e+000 2.500000000000e+000 0.000000000000e+000
          8.000000000000e+000 5.000000000000e+000 0.000000000000e+000
          8.000000000000e+000 7.500000000000e+000 0.000000000000e+000
          8.000000000000e+000 1.000000000000e+001 0.000000000000e+000
          8.000000000000e+000 1.250000000000e+001 0.000000000000e+000
          8.000000000000e+000 1.500000000000e+001 0.000000000000e+000
          8.000000000000e+000 1.750000000000e+001 0.000000000000e+000
          8.000000000000e+000 2.000000000000e+001 0.000000000000e+000
          1.000000000000e+001 0.000000000000e+000 0.000000000000e+000
          1.000000000000e+001 2.500000000000e+000 0.000000000000e+000
          1.000000000000e+001 5.000000000000e+000 0.000000000000e+000
          1.000000000000e+001 7.500000000000e+000 0.000000000000e+000
          1.000000000000e+001 1.000000000000e+001 0.000000000000e+000
          1.000000000000e+001 1.250000000000e+001 0.000000000000e+000
          1.000000000000e+001 1.500000000000e+001 0.000000000000e+000
          1.000000000000e+001 1.750000000000e+001 0.000000000000e+000
          1.000000000000e+001 2.000000000000e+001 0.000000000000e+000
          1.200000000000e+001 0.000000000000e+000 0.000000000000e+000
          1.200000000000e+001 2.500000000000e+000 0.000000000000e+000
          1.200000000000e+001 5.000000000000e+000 0.000000000000e+000
          1.200000000000e+001 7.500000000000e+000 0.000000000000e+000
          1.200000000000e+001 1.000000000000e+001 0.000000000000e+000
          1.200000000000e+001 1.250000000000e+001 0.000000000000e+000
          1.200000000000e+001 1.500000000000e+001 0.000000000000e+000
          1.200000000000e+001 1.750000000000e+001 0.000000000000e+000
          1.200000000000e+001 2.000000000000e+001 0.000000000000e+000
          1.400000000000e+001 0.000000000000e+000 0.000000000000e+000
          1.400000000000e+001 2.500000000000e+000 0.000000000000e+000
          1.400000000000e+001 5.000000000000e+000 0.000000000000e+000
          1.400000000000e+001 7.500000000000e+000 0.000000000000e+000
          1.400000000000e+001 1.000000000000e+001 0.000000000000e+000
          1.400000000000e+001 1.250000000000e+001 0.000000000000e+000
          1.400000000000e+001 1.500000000000e+001 0.000000000000e+000
          1.400000000000e+001 1.750000000000e+001 0.000000000000e+000
          1.400000000000e+001 2.000000000000e+001 0.000000000000e+000
          1.600000000000e+001 0.000000000000e+000 0.000000000000e+000
          1.600000000000e+001 2.500000000000e+000 0.000000000000e+000
          1.600000000000e+001 5.000000000000e+000 0.000000000000e+000
          1.600000000000e+001 7.500000000000e+000 0.000000000000e+000
          1.600000000000e+001 1.000000000000e+001 0.000000000000e+000
          1.600000000000e+001 1.250000000000e+001 0.000000000000e+000
          1.600000000000e+001 1.500000000000e+001 0.000000000000e+000
          1.600000000000e+001 1.750000000000e+001 0.000000000000e+000
          1.600000000000e+001 2.000000000000e+001 0.000000000000e+000
          1.800000000000e+001 0.000000000000e+000 0.000000000000e+000
          1.800000000000e+001 2.500000000000e+000 0.000000000000e+000
          1.800000000000e+001 5.000000000000e+000 0.000000000000e+000
          1.800000000000e+001 7.500000000000e+000 0.000000000000e+000
          1.800000000000e+001 1.000000000000e+001 0.000000000000e+000
          1.800000000000e+001 1.250000000000e+001 0.000000000000e+000
          1.800000000000e+001 1.500000000000e+001 0.000000000000e+000
          1.800000000000e+001 1.750000000000e+001 0.000000000000e+000
          1.800000000000e+001 2.000000000000e+001 0.000000000000e+000
          2.000000000000e+001 0.000000000000e+000 0.000000000000e+000
          2.000000000000e+001 2.500000000000e+000 0.000000000000e+000
          2.000000000000e+001 5.000000000000e+000 0.000000000000e+000
          2.000000000000e+001 7.500000000000e+000 0.000000000000e+000
          2.000000000000e+001 1.000000000000e+001 0.000000000000e+000
          2.000000000000e+001 1.250000000000e+001 0.000000000000e+000
          2.000000000000e+001 1.500000000000e+001 0.000000000000e+000
          2.000000000000e+001 1.750000000000e+001 0.000000000000e+000
          2.000000000000e+001 2.000000000000e+001 0.000000000000e+000
          2.200000000000e+001 0.000000000000e+000 0.000000000000e+000
          2.200000000000e+001 2.500000000000e+000 0.000000000000e+000
          2.200000000000e+001 5.000000000000e+000 0.000000000000e+000
          2.200000000000e+001 7.500000000000e+000 0.000000000000e+000
          2.200000000000e+001 1.000000000000e+001 0.000000000000e+000
          2.200000000000e+001 1.250000000000e+001 0.000000000000e+000
          2.200000000000e+001 1.500000000000e+001 0.000000000000e+000
          2.200000000000e+001 1.750000000000e+001 0.000000000000e+000
          2.200000000000e+001 2.000000000000e+001 0.000000000000e+000
          2.400000000000e+001 0.000000000000e+000 0.000000000000e+000
          2.400000000000e+001 2.500000000000e+000 0.000000000000e+000
          2.400000000000e+001 5.000000000000e+000 0.000000000000e+000
          2.400000000000e+001 7.500000000000e+000 0.000000000000e+000
          2.400000000000e+001 1.000000000000e+001 0.000000000000e+000
          2.400000000000e+001 1.250000000000e+001 0.000000000000e+000
          2.400000000000e+001 1.500000000000e+001 0.000000000000e+000
          2.400000000000e+001 1.750000000000e+001 0.000000000000e+000
          2.400000000000e+001 2.000000000000e+001 0.000000000000e+000
          2.600000000000e+001 0.000000000000e+000 0.000000000000e+000
          2.600000000000e+001 2.500000000000e+000 0.000000000000e+000
          2.600000000000e+001 5.000000000000e+000 0.000000000000e+000
          2.600000000000e+001 7.500000000000e+000 0.000000000000e+000
          2.600000000000e+001 1.000000000000e+001 0.000000000000e+000
          2.600000000000e+001 1.250000000000e+001 0.000000000000e+000
          2.600000000000e+001 1.500000000000e+001 0.000000000000e+000
          2.600000000000e+001 1.750000000000e+001 0.000000000000e+000
          2.600000000000e+001 2.000000000000e+001 0.000000000000e+000
          2.800000000000e+001 0.000000000000e+000 0.000000000000e+000
          2.800000000000e+001 2.500000000000e+000 0.000000000000e+000
          2.800000000000e+001 5.000000000000e+000 0.000000000000e+000
          2.800000000000e+001 7.500000000000e+000 0.000000000000e+000
          2.800000000000e+001 1.000000000000e+001 0.000000000000e+000
          2.800000000000e+001 1.250000000000e+001 0.000000000000e+000
          2.800000000000e+001 1.500000000000e+001 0.000000000000e+000
          2.800000000000e+001 1.750000000000e+001 0.000000000000e+000
          2.800000000000e+001 2.000000000000e+001 0.000000000000e+000
          3.000000000000e+001 0.000000000000e+000 0.000000000000e+000
          3.000000000000e+001 2.500000000000e+000 0.000000000000e+000
          3.000000000000e+001 5.000000000000e+000 0.000000000000e+000
          3.000000000000e+001 7.500000000000e+000 0.000000000000e+000
[...]
      <PointData Scalars="LIQUID_PRESSURE">
        <DataArray type="Float64" Name="LIQUID_PRESSURE" format="ascii">
          1.011879173175e+006 1.011890551359e+006 1.011890551368e+006 1.011879173119e+006 1.011890551390e+006 1.011879173064e+006 1.011890551356e+006 1.011879173134e+006 1.011890551375e+006 1.011879173121e+006 1.011890551411e+006 1.011879173030e+006 1.011890551409e+006 1.011879173042e+006 1.011890551426e+006 1.011879173020e+006 1.011890551449e+006 1.011879172958e+006 1.011886019576e+006 1.011886019603e+006 1.011886019612e+006 1.011886019587e+006 1.011886019592e+006 1.011886019617e+006 1.011886019600e+006 1.011886019614e+006 1.011886019635e+006 1.011850669772e+006 1.011850669783e+006 1.011850669788e+006 1.011850669773e+006 1.011850669779e+006 1.011850669790e+006 1.011850669785e+006 1.011850669779e+006 1.011850669786e+006 1.011861509350e+006 1.011861509356e+006 1.011861509355e+006 1.011861509348e+006 1.011861509346e+006 1.011861509357e+006 1.011861509348e+006 1.011861509346e+006 1.011861509354e+006 1.011826949337e+006 1.011826949344e+006 1.011826949341e+006 1.011826949342e+006 1.011826949338e+006 1.011826949346e+006 1.011826949336e+006 1.011826949341e+006 1.011826949352e+006 1.011790596736e+006 1.011790596734e+006 1.011790596743e+006 1.011790596746e+006 1.011790596744e+006 1.011790596741e+006 1.011790596738e+006 1.011790596746e+006 1.011790596749e+006 1.011785718180e+006 1.011785718176e+006 1.011785718182e+006 1.011785718190e+006 1.011785718184e+006 1.011785718179e+006 1.011785718184e+006 1.011785718183e+006 1.011785718191e+006 1.011723843089e+006 1.011723843082e+006 1.011723843092e+006 1.011723843093e+006 1.011723843083e+006 1.011723843082e+006 1.011723843091e+006 1.011723843093e+006 1.011723843088e+006 1.011699798336e+006 1.011699798332e+006 1.011699798336e+006 1.011699798334e+006 1.011699798330e+006 1.011699798327e+006 1.011699798338e+006 1.011699798335e+006 1.011699798333e+006 1.011655010236e+006 1.011655010247e+006 1.011655010243e+006 1.011655010241e+006 1.011655010239e+006 1.011655010238e+006 1.011655010247e+006 1.011655010247e+006 1.011655010241e+006 1.011596055415e+006 1.011596055420e+006 1.011596055416e+006 1.011596055414e+006 1.011596055410e+006 1.011596055403e+006 1.011596055422e+006 1.011596055422e+006 1.011596055415e+006 1.011559073969e+006 1.011559073961e+006 1.011559073969e+006 1.011559073959e+006 1.011559073958e+006 1.011559073962e+006 1.011559073959e+006 1.011559073962e+006 1.011559073969e+006 1.011484065543e+006 1.011484065536e+006 1.011484065529e+006 1.011484065531e+006 1.011484065528e+006 1.011484065527e+006 1.011484065531e+006 1.011484065527e+006 1.011484065530e+006 1.011437983147e+006 1.011437983143e+006 1.011437983133e+006 1.011437983141e+006 1.011437983136e+006 1.011437983139e+006 1.011437983139e+006 1.011437983139e+006 1.011437983139e+006 1.011362927187e+006 1.011362927189e+006 1.011362927188e+006 1.011362927185e+006 1.011362927186e+006 1.011362927179e+006 1.011362927183e+006 1.011362927183e+006 1.011362927186e+006 1.011293644725e+006 1.011293644724e+006 1.011293644719e+006 1.011293644718e+006 1.011293644722e+006 1.011293644716e+006 1.011293644722e+006 1.011293644721e+006 1.011293644722e+006 1.011229139437e+006 1.011229139450e+006 1.011229139440e+006 1.011229139443e+006 1.011229139448e+006 1.011229139448e+006 1.011229139451e+006 1.011229139443e+006 1.011229139446e+006 1.011132564565e+006 1.011132564564e+006 1.011132564563e+006 1.011132564556e+006 1.011132564561e+006 1.011132564569e+006 1.011132564561e+006 1.011132564565e+006 1.011132564567e+006 1.011070488557e+006 1.011070488548e+006 1.011070488549e+006 1.011070488557e+006 1.011070488552e+006 1.011070488547e+006 1.011070488548e+006 1.011070488551e+006 1.011070488558e+006 1.010969744658e+006 1.010969744654e+006 1.010969744654e+006 1.010969744669e+006 1.010969744659e+006 1.010969744659e+006 1.010969744660e+006 1.010969744656e+006 1.010969744666e+006 1.010886204051e+006 1.010886204058e+006 1.010886204060e+006 1.010886204061e+006 1.010886204061e+006 1.010886204059e+006 1.010886204058e+006 1.010886204059e+006 1.010886204057e+006 1.010791517590e+006 1.010791517591e+006 1.010791517598e+006 1.010791517598e+006 1.010791517601e+006 1.010791517605e+006 1.010791517600e+006 1.010791517600e+006 1.010791517600e+006 1.010690085204e+006 1.010690085197e+006 1.010690085202e+006 1.010690085204e+006 1.010690085208e+006 1.010690085211e+006 1.010690085212e+006 1.010690085211e+006 1.010690085207e+006 1.010597344442e+006 1.010597344443e+006 1.010597344440e+006 1.010597344443e+006 1.010597344444e+006 1.010597344445e+006 1.010597344452e+006 1.010597344450e+006 1.010597344446e+006 1.010480014588e+006 1.010480014600e+006 1.010480014594e+006 1.010480014593e+006 1.010480014594e+006 1.010480014594e+006 1.010480014596e+006 1.010480014597e+006 1.010480014593e+006 1.010382027372e+006 1.010382027368e+006 1.010382027370e+006 1.010382027367e+006 1.010382027366e+006 1.010382027365e+006 1.010382027369e+006 1.010382027376e+006 1.010382027370e+006 1.010265998420e+006 1.010265998415e+006 1.010265998413e+006 1.010265998416e+006 1.010265998412e+006 1.010265998405e+006 1.010265998413e+006 1.010265998415e+006 1.010265998424e+006 1.010144704469e+006 1.010144704464e+006 1.010144704456e+006 1.010144704458e+006 1.010144704459e+006 1.010144704457e+006 1.010144704460e+006 1.010144704464e+006 1.010144704471e+006 1.010039229836e+006 1.010039229836e+006 1.010039229832e+006 1.010039229832e+006 1.010039229833e+006 1.010039229833e+006 1.010039229831e+006 1.010039229832e+006 1.010039229833e+006 1.009902656009e+006 1.009902656007e+006 1.009902656008e+006 1.009902656013e+006 1.009902656010e+006 1.009902656007e+006 1.009902656010e+006 1.009902656009e+006 1.009902656006e+006 1.009784677626e+006 1.009784677631e+006 1.009784677635e+006 1.009784677639e+006 1.009784677639e+006 1.009784677634e+006 1.009784677640e+006 1.009784677638e+006 1.009784677639e+006 1.009659875295e+006 1.009659875293e+006 1.009659875295e+006 1.009659875299e+006 1.009659875301e+006 1.009659875299e+006 1.009659875297e+006 1.009659875291e+006 1.009659875296e+006 1.009515822625e+006 1.009515822620e+006 1.009515822624e+006 1.009515822624e+006 1.009515822625e+006 1.009515822623e+006 1.009515822621e+006 1.009515822619e+006 1.009515822616e+006 1.009395392545e+006 1.009395392547e+006 1.009395392547e+006 1.009395392550e+006 1.009395392551e+006 1.009395392545e+006 1.009395392552e+006 1.009395392544e+006 1.009395392546e+006 1.009250739125e+006 1.009250739122e+006 1.009250739123e+006 1.009250739121e+006 1.009250739126e+006 1.009250739125e+006 1.009250739123e+006 1.009250739123e+006 1.009250739120e+006 1.009108736457e+006 1.009108736459e+006 1.009108736457e+006 1.009108736456e+006 1.009108736460e+006 1.009108736458e+006 1.009108736458e+006 1.009108736456e+006 1.009108736455e+006 1.008974089343e+006 1.008974089348e+006 1.008974089349e+006 1.008974089349e+006 1.008974089347e+006 1.008974089349e+006 1.008974089349e+006 1.008974089345e+006 1.008974089339e+006 1.008821684322e+006 1.008821684318e+006 1.008821684315e+006 1.008821684318e+006 1.008821684318e+006 1.008821684318e+006 1.008821684315e+006 1.008821684312e+006 1.008821684312e+006 1.008673284077e+006 1.008673284072e+006 1.008673284074e+006 1.008673284070e+006 1.008673284074e+006 1.008673284072e+006 1.008673284071e+006 1.008673284068e+006 1.008673284072e+006 1.008533099024e+006 1.008533099025e+006 1.008533099022e+006 1.008533099026e+006 1.008533099023e+006 1.008533099023e+006 1.008533099023e+006 1.008533099021e+006 1.008533099023e+006 1.008369782995e+006 1.008369782999e+006 1.008369782997e+006 1.008369782999e+006 1.008369782998e+006 1.008369782996e+006 1.008369782995e+006 1.008369782996e+006 1.008369782996e+006 1.008219333819e+006 1.008219333821e+006 1.008219333822e+006 1.008219333823e+006 1.008219333824e+006 1.008219333817e+006 1.008219333826e+006 1.008219333819e+006 1.008219333822e+006 1.008063710178e+006 1.008063710183e+006 1.008063710181e+006 1.008063710179e+006 1.008063710182e+006 1.008063710179e+006 1.008063710178e+006 1.008063710186e+006 1.008063710187e+006 1.007901244310e+006 1.007901244316e+006 1.007901244314e+006 1.007901244313e+006 1.007901244311e+006 1.007901244311e+006 1.007901244310e+006 1.007901244312e+006 1.007901244312e+006 1.007749619301e+006 1.007749619306e+006 1.007749619304e+006 1.007749619307e+006 1.007749619302e+006 1.007749619300e+006 1.007749619299e+006 1.007749619300e+006 1.007749619303e+006 1.007581005650e+006 1.007581005650e+006 1.007581005653e+006 1.007581005654e+006 1.007581005648e+006 1.007581005651e+006 1.007581005652e+006 1.007581005651e+006 1.007581005654e+006 1.007408503068e+006 1.007408503068e+006 1.007408503068e+006 1.007408503070e+006 1.007408503071e+006 1.007408503069e+006 1.007408503071e+006 1.007408503070e+006 1.007408503067e+006 1.007260183106e+006 1.007260183109e+006 1.007260183109e+006 1.007260183108e+006 1.007260183112e+006 1.007260183110e+006 1.007260183112e+006 1.007260183110e+006 1.007260183110e+006 1.007082810103e+006 1.007082810106e+006 1.007082810106e+006 1.007082810109e+006 1.007082810109e+006 1.007082810107e+006 1.007082810107e+006 1.007082810108e+006 1.007082810110e+006 1.006916625898e+006 1.006916625896e+006 1.006916625898e+006 1.006916625898e+006 1.006916625896e+006 1.006916625899e+006 1.006916625900e+006 1.006916625899e+006 1.006916625898e+006 1.006749317029e+006 1.006749317026e+006 1.006749317025e+006 1.006749317025e+006 1.006749317020e+006 1.006749317026e+006 1.006749317027e+006 1.006749317027e+006 1.006749317025e+006 1.006572582947e+006 1.006572582950e+006 1.006572582952e+006 1.006572582948e+006 1.006572582944e+006 1.006572582948e+006 1.006572582947e+006 1.006572582947e+006 1.006572582947e+006 1.006404006540e+006 1.006404006545e+006 1.006404006547e+006 1.006404006546e+006 1.006404006545e+006 1.006404006543e+006 1.006404006545e+006 1.006404006544e+006 1.006404006544e+006 1.006235868328e+006 1.006235868328e+006 1.006235868327e+006 1.006235868329e+006 1.006235868328e+006 1.006235868325e+006 1.006235868327e+006 1.006235868328e+006 1.006235868327e+006 1.006057265596e+006 1.006057265598e+006 1.006057265599e+006 1.006057265596e+006 1.006057265597e+006 1.006057265594e+006 1.006057265599e+006 1.006057265598e+006 1.006057265598e+006 1.005880550713e+006 1.005880550715e+006 1.005880550714e+006 1.005880550712e+006 1.005880550713e+006 1.005880550714e+006 1.005880550712e+006 1.005880550715e+006 1.005880550715e+006 1.005711123435e+006 1.005711123438e+006 1.005711123438e+006 1.005711123437e+006 1.005711123437e+006 1.005711123438e+006 1.005711123437e+006 1.005711123437e+006 1.005711123436e+006 1.005548258504e+006 1.005548258507e+006 1.005548258505e+006 1.005548258505e+006 1.005548258507e+006 1.005548258507e+006 1.005548258509e+006 1.005548258505e+006 1.005548258504e+006 1.005337022823e+006 1.005337022821e+006 1.005337022821e+006 1.005337022818e+006 1.005337022817e+006 1.005337022818e+006 1.005337022818e+006 1.005337022817e+006 1.005337022817e+006 1.005185293369e+006 1.005185293370e+006 1.005185293368e+006 1.005185293372e+006 1.005185293375e+006 1.005185293376e+006 1.005185293375e+006 1.005185293377e+006 1.005185293375e+006 1.005025468672e+006 1.005025468671e+006 1.005025468671e+006 1.005025468665e+006 1.005025468662e+006 1.005025468661e+006 1.005025468659e+006 1.005025468661e+006 1.005025468658e+006 1.004835528290e+006 1.004835528291e+006 1.004835528294e+006 1.004835528303e+006 1.004835528309e+006 1.004835528314e+006 1.004835528314e+006 1.004835528317e+006 1.004835528315e+006 1.004610398789e+006 1.004610398786e+006 1.004610398785e+006 1.004610398768e+006 1.004610398765e+006 1.004610398759e+006 1.004610398761e+006 1.004610398759e+006 1.004610398756e+006 1.004554183393e+006 1.004554183394e+006 1.004554183389e+006 1.004554183413e+006 1.004554183423e+006 1.004554183423e+006 1.004554183427e+006 1.004554183427e+006 1.004554183431e+006 1.004227993751e+006 1.004227993748e+006 1.004227993754e+006 1.004227993734e+006 1.004227993734e+006 1.004227993734e+006 1.004227993728e+006 1.004227993726e+006 1.004227993726e+006 1.004202047846e+006 1.004202047848e+006 1.004202047849e+006 1.004202047850e+006 1.004202047858e+006 1.004202047863e+006 1.004202047863e+006 1.004202047860e+006 1.004202047862e+006 1.003928364322e+006 1.003928364324e+006 1.003928364318e+006 1.003928364329e+006 1.003928364326e+006 1.003928364329e+006 1.003928364329e+006 1.003928364331e+006 1.003928364330e+006 1.003781547286e+006 1.003781547287e+006 1.003781547283e+006 1.003781547286e+006 1.003781547282e+006 1.003781547284e+006 1.003781547284e+006 1.003781547285e+006 1.003781547286e+006 1.003630520325e+006 1.003630520327e+006 1.003630520325e+006 1.003630520326e+006 1.003630520324e+006 1.003630520325e+006 1.003630520326e+006 1.003630520327e+006 1.003630520326e+006 1.003445687543e+006 1.003445687539e+006 1.003445687539e+006 1.003445687540e+006 1.003445687539e+006 1.003445687540e+006 1.003445687541e+006 1.003445687540e+006 1.003445687542e+006 1.003284966207e+006 1.003284966207e+006 1.003284966206e+006 1.003284966207e+006 1.003284966208e+006 1.003284966209e+006 1.003284966208e+006 1.003284966208e+006 1.003284966207e+006 1.003109498137e+006 1.003109498136e+006 1.003109498136e+006 1.003109498138e+006 1.003109498137e+006 1.003109498136e+006 1.003109498137e+006 1.003109498135e+006 1.003109498134e+006 1.002941761094e+006 1.002941761094e+006 1.002941761094e+006 1.002941761094e+006 1.002941761094e+006 1.002941761094e+006 1.002941761092e+006 1.002941761092e+006 1.002941761092e+006 1.002805658407e+006 1.002805658406e+006 1.002805658407e+006 1.002805658407e+006 1.002805658407e+006 1.002805658407e+006 1.002805658406e+006 1.002805658407e+006 1.002805658405e+006 1.002624423383e+006 1.002624423381e+006 1.002624423382e+006 1.002624423382e+006 1.002624423382e+006 1.002624423382e+006 1.002624423382e+006 1.002624423380e+006 1.002624423385e+006 1.002476430457e+006 1.002476430458e+006 1.002476430458e+006 1.002476430456e+006 1.002476430456e+006 1.002476430456e+006 1.002476430457e+006 1.002476430456e+006 1.002476430455e+006 1.002334750526e+006 1.002334750524e+006 1.002334750526e+006 1.002334750526e+006 1.002334750527e+006 1.002334750526e+006 1.002334750526e+006 1.002334750527e+006 1.002334750527e+006 1.002171381880e+006 1.002171381881e+006 1.002171381880e+006 1.002171381881e+006 1.002171381882e+006 1.002171381881e+006 1.002171381881e+006 1.002171381882e+006 1.002171381882e+006 1.002050201462e+006 1.002050201462e+006 1.002050201464e+006 1.002050201464e+006 1.002050201465e+006 1.002050201464e+006 1.002050201464e+006 1.002050201464e+006 1.002050201465e+006 1.001923672460e+006 1.001923672461e+006 1.001923672463e+006 1.001923672462e+006 1.001923672462e+006 1.001923672462e+006 1.001923672462e+006 1.001923672462e+006 1.001923672461e+006 1.001825687141e+006 1.001825687141e+006 1.001825687141e+006 1.001825687141e+006 1.001825687141e+006 1.001825687141e+006 1.001825687141e+006 1.001825687141e+006 1.001825687141e+006 1.001729595440e+006 1.001729595441e+006 1.001729595441e+006 1.001729595441e+006 1.001729595441e+006 1.001729595441e+006 1.001729595441e+006 1.001729595441e+006 1.001729595440e+006 1.001633504071e+006 1.001633504071e+006 1.001633504071e+006 1.001633504072e+006 1.001633504072e+006 1.001633504072e+006 1.001633504071e+006 1.001633504071e+006 1.001633504071e+006 1.001537413245e+006 1.001537413245e+006 1.001537413245e+006 1.001537413245e+006 1.001537413245e+006 1.001537413245e+006 1.001537413245e+006 1.001537413244e+006 1.001537413244e+006 1.001441322878e+006 1.001441322878e+006 1.001441322878e+006 1.001441322878e+006 1.001441322878e+006 1.001441322878e+006 1.001441322878e+006 1.001441322878e+006 1.001441322878e+006 1.001345232936e+006 1.001345232936e+006 1.001345232936e+006 1.001345232935e+006 1.001345232935e+006 1.001345232935e+006 1.001345232936e+006 1.001345232935e+006 1.001345232936e+006 1.001249143387e+006 1.001249143387e+006 1.001249143387e+006 1.001249143387e+006 1.001249143387e+006 1.001249143387e+006 1.001249143387e+006 1.001249143387e+006 1.001249143387e+006 1.001153054199e+006 1.001153054199e+006 1.001153054199e+006 1.001153054200e+006 1.001153054200e+006 1.001153054200e+006 1.001153054199e+006 1.001153054199e+006 1.001153054199e+006 1.001056965340e+006 1.001056965340e+006 1.001056965340e+006 1.001056965340e+006 1.001056965340e+006 1.001056965340e+006 1.001056965340e+006 1.001056965340e+006 1.001056965340e+006 1.000960876776e+006 1.000960876776e+006 1.000960876776e+006 1.000960876776e+006 1.000960876776e+006 1.000960876776e+006 1.000960876776e+006 1.000960876776e+006 1.000960876776e+006 1.000864788474e+006 1.000864788474e+006 1.000864788473e+006 1.000864788473e+006 1.000864788474e+006 1.000864788474e+006 1.000864788474e+006 1.000864788474e+006 1.000864788474e+006 1.000768700400e+006 1.000768700400e+006 1.000768700400e+006 1.000768700400e+006 1.000768700400e+006 1.000768700400e+006 1.000768700400e+006 1.000768700400e+006 1.000768700400e+006 1.000672612520e+006 1.000672612520e+006 1.000672612520e+006 1.000672612520e+006 1.000672612520e+006 1.000672612521e+006 1.000672612521e+006 1.000672612521e+006 1.000672612520e+006 1.000576524803e+006 1.000576524803e+006 1.000576524803e+006 1.000576524803e+006 1.000576524803e+006 1.000576524803e+006 1.000576524803e+006 1.000576524803e+006 1.000576524803e+006 1.000480437213e+006 1.000480437213e+006 1.000480437213e+006 1.000480437213e+006 1.000480437213e+006 1.000480437213e+006 1.000480437213e+006 1.000480437213e+006 1.000480437213e+006 1.000384349717e+006 1.000384349717e+006 1.000384349717e+006 1.000384349717e+006 1.000384349717e+006 1.000384349717e+006 1.000384349717e+006 1.000384349717e+006 1.000384349717e+006 1.000288262281e+006 1.000288262281e+006 1.000288262281e+006 1.000288262281e+006 1.000288262281e+006 1.000288262281e+006 1.000288262281e+006 1.000288262281e+006 1.000288262281e+006 1.000192174872e+006 1.000192174872e+006 1.000192174872e+006 1.000192174872e+006 1.000192174872e+006 1.000192174873e+006 1.000192174873e+006 1.000192174872e+006 1.000192174872e+006 1.000096087457e+006 1.000096087457e+006 1.000096087457e+006 1.000096087457e+006 1.000096087457e+006 1.000096087457e+006 1.000096087457e+006 1.000096087457e+006 1.000096087457e+006 1.000000000000e+006 1.000000000000e+006 1.000000000000e+006 1.000000000000e+006 1.000000000000e+006 1.000000000000e+006 1.000000000000e+006 1.000000000000e+006 1.000000000000e+006 
        </DataArray>
        <DataArray type="Float64" Name="MOLAR_FRACTION" format="ascii">