<?xml version="1.0"?>
<VTKFile type="UnstructuredGrid" version="0.1" byte_order="LittleEndian">
  <UnstructuredGrid>
    <Piece NumberOfPoints="909" NumberOfCells="800">
      <Points>
        <DataArray type="Float64" NumberOfComponents="3" format="ascii">
          0.000000000000e+000 0.000000000000e+000 0.000000000000e+000
          2.000000000000e+000 0.000000000000e+000 0.000000000000e+000
          2.000000000000e+000 2.500000000000e+000 0.000000000000e+000
          0.000000000000e+000 2.500000000000e+000 0.000000000000e+000
          2.000000000000e+000 5.000000000000e+000 0.000000000000e+000
          0.000000000000e+000 5.000000000000e+000 0.000000000000e+000
          2.000000000000e+000 7.500000000000e+000 0.000000000000e+000
          0.000000000000e+000 7.500000000000e+000 0.000000000000e+000
          2.000000000000e+000 1.000000000000e+001 0.000000000000e+000
          0.000000000000e+000 1.000000000000e+001 0.000000000000e+000
          2.000000000000e+000 1.250000000000e+001 0.000000000000e+000
          0.000000000000e+000 1.250000000000e+001 0.000000000000e+000
          2.000000000000e+000 1.500000000000e+001 0.000000000000e+000
          0.000000000000e+000 1.500000000000e+001 0.000000000000e+000
          2.000000000000e+000 1.750000000000e+001 0.000000000000e+000
          0.000000000000e+000 1.750000000000e+001 0.000000000000e+000
          2.000000000000e+000 2.000000000000e+001 0.000000000000e+000
          0.000000000000e+000 2.000000000000e+001 0.000000000000e+000
          4.000000000000e+000 0.000000000000e+000 0.000000000000e+000
          4.000000000000e+000 2.500000000000e+000 0.000000000000e+000
          4.000000000000e+000 5.000000000000e+000 0.000000000000e+000
          4.000000000000e+000 7.500000000000e+000 0.000000000000e+000
          4.000000000000e+000 1.000000000000e+001 0.000000000000e+000
          4.000000000000e+000 1.250000000000e+001 0.000000000000e+000
          4.000000000000e+000 1.500000000000e+001 0.000000000000e+000
          4.000000000000e+000 1.750000000000e+001 0.000000000000e+000
          4.000000000000e+000 2.000000000000e+001 0.000000000000e+000
          6.000000000000e+000 0.000000000000e+000 0.000000000000e+000
          6.000000000000e+000 2.500000000000e+000 0.000000000000e+000
          6.000000000000e+000 5.000000000000e+000 0.000000000000e+000
          6.000000000000e+000 7.500000000000e+000 0.000000000000e+000
          6.000000000000e+000 1.000000000000e+001 0.000000000000e+000
          6.000000000000e+000 1.250000000000e+001 0.000000000000e+000
          6.000000000000e+000 1.500000000000e+001 0.000000000000e+000
          6.000000000000e+000 1.750000000000e+001 0.000000000000e+000
          6.000000000000e+000 2.000000000000e+001 0.000000000000e+000
          8.000000000000e+000 0.000000000000e+000 0.000000000000e+000
          8.000000000000e+000 2.500000000000e+000 0.000000000000e+000
          8.000000000000e+000 5.000000000000e+000 0.000000000000e+000
          8.000000000000e+000 7.500000000000e+000 0.000000000000e+000
          8.000000000000e+000 1.000000000000e+001 0.000000000000e+000
          8.000000000000e+000 1.250000000000e+001 0.000000000000e+000
          8.000000000000e+000 1.500000000000e+001 0.000000000000e+000
          8.000000000000e+000 1.750000000000e+001 0.000000000000e+000
          8.000000000000e+000 2.000000000000e+001 0.000000000000e+000
          1.000000000000e+001 0.000000000000e+000 0.000000000000e+000
          1.000000000000e+001 2.500000000000e+000 0.000000000000e+000
          1.000000000000e+001 5.000000000000e+000 0.000000000000e+000
          1.000000000000e+001 7.500000000000e+000 0.000000000000e+000
          1.000000000000e+001 1.000000000000e+001 0.000000000000e+000
          1.000000000000e+001 1.250000000000e+001 0.000000000000e+000
          1.000000000000e+001 1.500000000000e+001 0.000000000000e+000
          1.000000000000e+001 1.750000000000e+001 0.000000000000e+000
          1.000000000000e+001 2.000000000000e+001 0.000000000000e+000
          1.200000000000e+001 0.000000000000e+000 0.000000000000e+000
          1.200000000000e+001 2.500000000000e+000 0.000000000000e+000
          1.200000000000e+001 5.000000000000e+000 0.000000000000e+000
          1.200000000000e+001 7.500000000000e+000 0.000000000000e+000
          1.200000000000e+001 1.000000000000e+001 0.000000000000e+000
          1.200000000000e+001 1.250000000000e+001 0.000000000000e+000
          1.200000000000e+001 1.500000000000e+001 0.000000000000e+000
          1.200000000000e+001 1.750000000000e+001 0.000000000000e+000
          1.200000000000e+001 2.000000000000e+001 0.000000000000e+000
          1.400000000000e+001 0.000000000000e+000 0.000000000000e+000
          1.400000000000e+001 2.500000000000e+000 0.000000000000e+000
          1.400000000000e+001 5.000000000000e+000 0.000000000000e+000
          1.400000000000e+001 7.500000000000e+000 0.000000000000e+000
          1.400000000000e+001 1.000000000000e+001 0.000000000000e+000
          1.400000000000e+001 1.250000000000e+001 0.000000000000e+000
          1.400000000000e+001 1.500000000000e+001 0.000000000000e+000
          1.400000000000e+001 1.750000000000e+001 0.000000000000e+000
          1.400000000000e+001 2.000000000000e+001 0.000000000000e+000
          1.600000000000e+001 0.000000000000e+000 0.000000000000e+000
          1.600000000000e+001 2.500000000000e+000 0.000000000000e+000
          1.600000000000e+001 5.000000000000e+000 0.000000000000e+000
          1.600000000000e+001 7.500000000000e+000 0.000000000000e+000
          1.600000000000e+001 1.000000000000e+001 0.000000000000e+000
          1.600000000000e+001 1.250000000000e+001 0.000000000000e+000
          1.600000000000e+001 1.500000000000e+001 0.000000000000e+000
          1.600000000000e+001 1.750000000000e+001 0.000000000000e+000
          1.600000000000e+001 2.000000000000e+001 0.000000000000e+000
          1.800000000000e+001 0.000000000000e+000 0.000000000000e+000
          1.800000000000e+001 2.500000000000e+000 0.000000000000e+000
          1.800000000000e+001 5.000000000000e+000 0.000000000000e+000
          1.800000000000e+001 7.500000000000e+000 0.000000000000e+000
          1.800000000000e+001 1.000000000000e+001 0.000000000000e+000
          1.800000000000e+001 1.250000000000e+001 0.000000000000e+000
          1.800000000000e+001 1.500000000000e+001 0.000000000000e+000
          1.800000000000e+001 1.750000000000e+001 0.000000000000e+000
          1.800000000000e+001 2.000000000000e+001 0.000000000000e+000
          2.000000000000e+001 0.000000000000e+000 0.000000000000e+000
          2.000000000000e+001 2.500000000000e+000 0.000000000000e+000
          2.000000000000e+001 5.000000000000e+000 0.000000000000e+000
          2.000000000000e+001 7.500000000000e+000 0.000000000000e+000
          2.000000000000e+001 1.000000000000e+001 0.000000000000e+000
          2.000000000000e+001 1.250000000000e+001 0.000000000000e+000
          2.000000000000e+001 1.500000000000e+001 0.000000000000e+000
          2.000000000000e+001 1.750000000000e+001 0.000000000000e+000
          2.000000000000e+001 2.000000000000e+001 0.000000000000e+000
          2.200000000000e+001 0.000000000000e+000 0.000000000000e+000
          2.200000000000e+001 2.500000000000e+000 0.000000000000e+000
          2.200000000000e+001 5.000000000000e+000 0.000000000000e+000
          2.200000000000e+001 7.500000000000e+000 0.000000000000e+000
          2.200000000000e+001 1.000000000000e+001 0.000000000000e+000
          2.200000000000e+001 1.250000000000e+001 0.000000000000e+000
          2.200000000000e+001 1.500000000000e+001 0.000000000000e+000
          2.200000000000e+001 1.750000000000e+001 0.000000000000e+000
          2.200000000000e+001 2.000000000000e+001 0.000000000000e+000
          2.400000000000e+001 0.000000000000e+000 0.000000000000e+000
          2.400000000000e+001 2.500000000000e+000 0.000000000000e+000
          2.400000000000e+001 5.000000000000e+000 0.000000000000e+000
          2.400000000000e+001 7.500000000000e+000 0.000000000000e+000
          2.400000000000e+001 1.000000000000e+001 0.000000000000e+000
          2.400000000000e+001 1.250000000000e+001 0.000000000000e+000
          2.400000000000e+001 1.500000000000e+001 0.000000000000e+000
          2.400000000000e+001 1.750000000000e+001 0.000000000000e+000
          2.400000000000e+001 2.000000000000e+001 0.000000000000e+000
          2.600000000000e+001 0.000000000000e+000 0.000000000000e+000
          2.600000000000e+001 2.500000000000e+000 0.000000000000e+000
          2.600000000000e+001 5.000000000000e+000 0.000000000000e+000
          2.600000000000e+001 7.500000000000e+000 0.000000000000e+000
          2.600000000000e+001 1.000000000000e+001 0.000000000000e+000
          2.600000000000e+001 1.250000000000e+001 0.000000000000e+000
          2.600000000000e+001 1.500000000000e+001 0.000000000000e+000
          2.600000000000e+001 1.750000000000e+001 0.000000000000e+000
          2.600000000000e+001 2.000000000000e+001 0.000000000000e+000
          2.800000000000e+001 0.000000000000e+000 0.000000000000e+000
          2.800000000000e+001 2.500000000000e+000 0.000000000000e+000
          2.800000000000e+001 5.000000000000e+000 0.000000000000e+000
          2.800000000000e+001 7.500000000000e+000 0.000000000000e+000
          2.800000000000e+001 1.000000000000e+001 0.000000000000e+000
          2.800000000000e+001 1.250000000000e+001 0.000000000000e+000
          2.800000000000e+001 1.500000000000e+001 0.000000000000e+000
          2.800000000000e+001 1.750000000000e+001 0.000000000000e+000
          2.800000000000e+001 2.000000000000e+001 0.000000000000e+000
          3.000000000000e+001 0.000000000000e+000 0.000000000000e+000
          3.000000000000e+001 2.500000000000e+000 0.000000000000e+000
          3.000000000000e+001 5.000000000000e+000 0.000000000000e+000
          3.000000000000e+001 7.500000000000e+000 0.000000000000e+000
[...]
      <PointData Scalars="LIQUID_PRESSURE">
        <DataArray type="Float64" Name="LIQUID_PRESSURE" format="ascii">
          1.030609985495e+006 1.030620154070e+006 1.030620154080e+006 1.030609985418e+006 1.030620154106e+006 1.030609985367e+006 1.030620154071e+006 1.030609985446e+006 1.030620154087e+006 1.030609985422e+006 1.030620154128e+006 1.030609985319e+006 1.030620154121e+006 1.030609985323e+006 1.030620154141e+006 1.030609985296e+006 1.030620154168e+006 1.030609985232e+006 1.030603553351e+006 1.030603553383e+006 1.030603553398e+006 1.030603553361e+006 1.030603553366e+006 1.030603553406e+006 1.030603553387e+006 1.030603553404e+006 1.030603553428e+006 1.030549509681e+006 1.030549509699e+006 1.030549509709e+006 1.030549509686e+006 1.030549509691e+006 1.030549509709e+006 1.030549509694e+006 1.030549509696e+006 1.030549509708e+006 1.030538254501e+006 1.030538254512e+006 1.030538254524e+006 1.030538254500e+006 1.030538254501e+006 1.030538254513e+006 1.030538254506e+006 1.030538254501e+006 1.030538254507e+006 1.030469280459e+006 1.030469280465e+006 1.030469280466e+006 1.030469280457e+006 1.030469280455e+006 1.030469280468e+006 1.030469280463e+006 1.030469280462e+006 1.030469280466e+006 1.030394213934e+006 1.030394213937e+006 1.030394213937e+006 1.030394213931e+006 1.030394213932e+006 1.030394213935e+006 1.030394213939e+006 1.030394213941e+006 1.030394213943e+006 1.030344729889e+006 1.030344729885e+006 1.030344729888e+006 1.030344729883e+006 1.030344729888e+006 1.030344729886e+006 1.030344729891e+006 1.030344729892e+006 1.030344729894e+006 1.030227947421e+006 1.030227947422e+006 1.030227947418e+006 1.030227947420e+006 1.030227947421e+006 1.030227947424e+006 1.030227947431e+006 1.030227947435e+006 1.030227947432e+006 1.030145891552e+006 1.030145891549e+006 1.030145891549e+006 1.030145891550e+006 1.030145891552e+006 1.030145891555e+006 1.030145891562e+006 1.030145891565e+006 1.030145891568e+006 1.030033904733e+006 1.030033904739e+006 1.030033904739e+006 1.030033904738e+006 1.030033904740e+006 1.030033904742e+006 1.030033904753e+006 1.030033904753e+006 1.030033904754e+006 1.029901056681e+006 1.029901056686e+006 1.029901056682e+006 1.029901056682e+006 1.029901056682e+006 1.029901056685e+006 1.029901056698e+006 1.029901056697e+006 1.029901056699e+006 1.029784058469e+006 1.029784058469e+006 1.029784058469e+006 1.029784058463e+006 1.029784058468e+006 1.029784058476e+006 1.029784058474e+006 1.029784058480e+006 1.029784058480e+006 1.029621132605e+006 1.029621132599e+006 1.029621132601e+006 1.029621132600e+006 1.029621132604e+006 1.029621132605e+006 1.029621132610e+006 1.029621132609e+006 1.029621132611e+006 1.029482670557e+006 1.029482670562e+006 1.029482670559e+006 1.029482670562e+006 1.029482670561e+006 1.029482670564e+006 1.029482670570e+006 1.029482670572e+006 1.029482670571e+006 1.029306629825e+006 1.029306629827e+006 1.029306629831e+006 1.029306629828e+006 1.029306629833e+006 1.029306629831e+006 1.029306629833e+006 1.029306629837e+006 1.029306629841e+006 1.029131534811e+006 1.029131534809e+006 1.029131534810e+006 1.029131534810e+006 1.029131534811e+006 1.029131534814e+006 1.029131534815e+006 1.029131534817e+006 1.029131534819e+006 1.028953338856e+006 1.028953338858e+006 1.028953338859e+006 1.028953338861e+006 1.028953338862e+006 1.028953338863e+006 1.028953338859e+006 1.028953338866e+006 1.028953338864e+006 1.028736308331e+006 1.028736308334e+006 1.028736308336e+006 1.028736308338e+006 1.028736308340e+006 1.028736308340e+006 1.028736308336e+006 1.028736308337e+006 1.028736308338e+006 1.028549850152e+006 1.028549850152e+006 1.028549850155e+006 1.028549850158e+006 1.028549850159e+006 1.028549850157e+006 1.028549850155e+006 1.028549850156e+006 1.028549850159e+006 1.028315767738e+006 1.028315767737e+006 1.028315767741e+006 1.028315767745e+006 1.028315767743e+006 1.028315767744e+006 1.028315767743e+006 1.028315767741e+006 1.028315767742e+006 1.028094491163e+006 1.028094491167e+006 1.028094491166e+006 1.028094491168e+006 1.028094491167e+006 1.028094491164e+006 1.028094491168e+006 1.028094491171e+006 1.028094491166e+006 1.027855417577e+006 1.027855417575e+006 1.027855417576e+006 1.027855417577e+006 1.027855417576e+006 1.027855417577e+006 1.027855417581e+006 1.027855417583e+006 1.027855417584e+006 1.027604193134e+006 1.027604193133e+006 1.027604193131e+006 1.027604193134e+006 1.027604193131e+006 1.027604193132e+006 1.027604193136e+006 1.027604193139e+006 1.027604193139e+006 1.027355334894e+006 1.027355334896e+006 1.027355334890e+006 1.027355334890e+006 1.027355334891e+006 1.027355334889e+006 1.027355334892e+006 1.027355334897e+006 1.027355334892e+006 1.027075110944e+006 1.027075110945e+006 1.027075110946e+006 1.027075110943e+006 1.027075110941e+006 1.027075110935e+006 1.027075110938e+006 1.027075110940e+006 1.027075110938e+006 1.026810639318e+006 1.026810639320e+006 1.026810639318e+006 1.026810639318e+006 1.026810639312e+006 1.026810639308e+006 1.026810639307e+006 1.026810639309e+006 1.026810639307e+006 1.026520374839e+006 1.026520374838e+006 1.026520374841e+006 1.026520374836e+006 1.026520374833e+006 1.026520374825e+006 1.026520374827e+006 1.026520374826e+006 1.026520374829e+006 1.026220856502e+006 1.026220856504e+006 1.026220856501e+006 1.026220856501e+006 1.026220856497e+006 1.026220856492e+006 1.026220856491e+006 1.026220856491e+006 1.026220856492e+006 1.025932225562e+006 1.025932225556e+006 1.025932225559e+006 1.025932225557e+006 1.025932225555e+006 1.025932225549e+006 1.025932225546e+006 1.025932225546e+006 1.025932225546e+006 1.025604723113e+006 1.025604723112e+006 1.025604723112e+006 1.025604723112e+006 1.025604723109e+006 1.025604723102e+006 1.025604723100e+006 1.025604723099e+006 1.025604723095e+006 1.025293722141e+006 1.025293722140e+006 1.025293722139e+006 1.025293722140e+006 1.025293722136e+006 1.025293722130e+006 1.025293722127e+006 1.025293722124e+006 1.025293722128e+006 1.024968863012e+006 1.024968863010e+006 1.024968863009e+006 1.024968863010e+006 1.024968863005e+006 1.024968863002e+006 1.024968862999e+006 1.024968862998e+006 1.024968862996e+006 1.024619542964e+006 1.024619542963e+006 1.024619542961e+006 1.024619542961e+006 1.024619542959e+006 1.024619542955e+006 1.024619542956e+006 1.024619542953e+006 1.024619542955e+006 1.024291591440e+006 1.024291591439e+006 1.024291591437e+006 1.024291591436e+006 1.024291591435e+006 1.024291591433e+006 1.024291591431e+006 1.024291591431e+006 1.024291591431e+006 1.023931684064e+006 1.023931684061e+006 1.023931684059e+006 1.023931684057e+006 1.023931684057e+006 1.023931684058e+006 1.023931684055e+006 1.023931684054e+006 1.023931684053e+006 1.023571338979e+006 1.023571338978e+006 1.023571338977e+006 1.023571338977e+006 1.023571338975e+006 1.023571338976e+006 1.023571338971e+006 1.023571338971e+006 1.023571338967e+006 1.023214544625e+006 1.023214544628e+006 1.023214544628e+006 1.023214544626e+006 1.023214544629e+006 1.023214544627e+006 1.023214544623e+006 1.023214544623e+006 1.023214544617e+006 1.022833636449e+006 1.022833636451e+006 1.022833636452e+006 1.022833636452e+006 1.022833636454e+006 1.022833636454e+006 1.022833636450e+006 1.022833636444e+006 1.022833636446e+006 1.022455025745e+006 1.022455025746e+006 1.022455025745e+006 1.022455025749e+006 1.022455025749e+006 1.022455025749e+006 1.022455025747e+006 1.022455025742e+006 1.022455025741e+006 1.022080500860e+006 1.022080500862e+006 1.022080500864e+006 1.022080500867e+006 1.022080500869e+006 1.022080500868e+006 1.022080500866e+006 1.022080500863e+006 1.022080500864e+006 1.021675404012e+006 1.021675404013e+006 1.021675404017e+006 1.021675404017e+006 1.021675404018e+006 1.021675404019e+006 1.021675404016e+006 1.021675404016e+006 1.021675404014e+006 1.021282202197e+006 1.021282202196e+006 1.021282202199e+006 1.021282202200e+006 1.021282202203e+006 1.021282202202e+006 1.021282202201e+006 1.021282202198e+006 1.021282202200e+006 1.020880771165e+006 1.020880771164e+006 1.020880771165e+006 1.020880771166e+006 1.020880771167e+006 1.020880771167e+006 1.020880771167e+006 1.020880771165e+006 1.020880771164e+006 1.020469582645e+006 1.020469582646e+006 1.020469582645e+006 1.020469582647e+006 1.020469582646e+006 1.020469582648e+006 1.020469582646e+006 1.020469582644e+006 1.020469582641e+006 1.020065016166e+006 1.020065016167e+006 1.020065016166e+006 1.020065016168e+006 1.020065016166e+006 1.020065016168e+006 1.020065016169e+006 1.020065016165e+006 1.020065016164e+006 1.019635681618e+006 1.019635681620e+006 1.019635681619e+006 1.019635681621e+006 1.019635681620e+006 1.019635681622e+006 1.019635681623e+006 1.019635681623e+006 1.019635681624e+006 1.019203380597e+006 1.019203380598e+006 1.019203380600e+006 1.019203380600e+006 1.019203380602e+006 1.019203380601e+006 1.019203380602e+006 1.019203380606e+006 1.019203380608e+006 1.018797630553e+006 1.018797630554e+006 1.018797630556e+006 1.018797630558e+006 1.018797630558e+006 1.018797630559e+006 1.018797630558e+006 1.018797630563e+006 1.018797630566e+006 1.018354914316e+006 1.018354914320e+006 1.018354914322e+006 1.018354914323e+006 1.018354914325e+006 1.018354914324e+006 1.018354914325e+006 1.018354914328e+006 1.018354914331e+006 1.017920192615e+006 1.017920192617e+006 1.017920192617e+006 1.017920192620e+006 1.017920192618e+006 1.017920192620e+006 1.017920192622e+006 1.017920192623e+006 1.017920192626e+006 1.017481192433e+006 1.017481192432e+006 1.017481192433e+006 1.017481192433e+006 1.017481192434e+006 1.017481192435e+006 1.017481192437e+006 1.017481192439e+006 1.017481192438e+006 1.017030303215e+006 1.017030303216e+006 1.017030303215e+006 1.017030303215e+006 1.017030303218e+006 1.017030303218e+006 1.017030303220e+006 1.017030303220e+006 1.017030303221e+006 1.016590411383e+006 1.016590411385e+006 1.016590411386e+006 1.016590411386e+006 1.016590411388e+006 1.016590411387e+006 1.016590411387e+006 1.016590411386e+006 1.016590411387e+006 1.016148145228e+006 1.016148145227e+006 1.016148145229e+006 1.016148145231e+006 1.016148145231e+006 1.016148145229e+006 1.016148145227e+006 1.016148145228e+006 1.016148145228e+006 1.015691559235e+006 1.015691559237e+006 1.015691559239e+006 1.015691559239e+006 1.015691559238e+006 1.015691559237e+006 1.015691559235e+006 1.015691559236e+006 1.015691559236e+006 1.015234865659e+006 1.015234865662e+006 1.015234865664e+006 1.015234865664e+006 1.015234865662e+006 1.015234865662e+006 1.015234865659e+006 1.015234865659e+006 1.015234865660e+006 1.014789334607e+006 1.014789334611e+006 1.014789334612e+006 1.014789334613e+006 1.014789334612e+006 1.014789334612e+006 1.014789334611e+006 1.014789334610e+006 1.014789334609e+006 1.014339621447e+006 1.014339621447e+006 1.014339621452e+006 1.014339621452e+006 1.014339621451e+006 1.014339621452e+006 1.014339621450e+006 1.014339621450e+006 1.014339621449e+006 1.013838711736e+006 1.013838711736e+006 1.013838711738e+006 1.013838711740e+006 1.013838711740e+006 1.013838711739e+006 1.013838711739e+006 1.013838711738e+006 1.013838711738e+006 1.013415904392e+006 1.013415904393e+006 1.013415904394e+006 1.013415904399e+006 1.013415904402e+006 1.013415904401e+006 1.013415904402e+006 1.013415904402e+006 1.013415904400e+006 1.012982517931e+006 1.012982517933e+006 1.012982517935e+006 1.012982517931e+006 1.012982517929e+006 1.012982517927e+006 1.012982517926e+006 1.012982517925e+006 1.012982517924e+006 1.012494204633e+006 1.012494204635e+006 1.012494204638e+006 1.012494204650e+006 1.012494204658e+006 1.012494204661e+006 1.012494204662e+006 1.012494204662e+006 1.012494204661e+006 1.011978395297e+006 1.011978395295e+006 1.011978395296e+006 1.011978395280e+006 1.011978395276e+006 1.011978395272e+006 1.011978395267e+006 1.011978395265e+006 1.011978395266e+006 1.011658896436e+006 1.011658896437e+006 1.011658896437e+006 1.011658896461e+006 1.011658896470e+006 1.011658896474e+006 1.011658896475e+006 1.011658896475e+006 1.011658896478e+006 1.011033627347e+006 1.011033627345e+006 1.011033627351e+006 1.011033627330e+006 1.011033627326e+006 1.011033627323e+006 1.011033627316e+006 1.011033627314e+006 1.011033627313e+006 1.010747578388e+006 1.010747578389e+006 1.010747578389e+006 1.010747578398e+006 1.010747578398e+006 1.010747578400e+006 1.010747578398e+006 1.010747578397e+006 1.010747578398e+006 1.010175630965e+006 1.010175630970e+006 1.010175630963e+006 1.010175630974e+006 1.010175630971e+006 1.010175630974e+006 1.010175630973e+006 1.010175630973e+006 1.010175630973e+006 1.009743347229e+006 1.009743347229e+006 1.009743347225e+006 1.009743347229e+006 1.009743347223e+006 1.009743347224e+006 1.009743347223e+006 1.009743347222e+006 1.009743347225e+006 1.009327836142e+006 1.009327836143e+006 1.009327836139e+006 1.009327836141e+006 1.009327836138e+006 1.009327836137e+006 1.009327836137e+006 1.009327836138e+006 1.009327836136e+006 1.008872423046e+006 1.008872423045e+006 1.008872423045e+006 1.008872423045e+006 1.008872423043e+006 1.008872423042e+006 1.008872423044e+006 1.008872423043e+006 1.008872423044e+006 1.008437468222e+006 1.008437468222e+006 1.008437468223e+006 1.008437468223e+006 1.008437468222e+006 1.008437468223e+006 1.008437468225e+006 1.008437468223e+006 1.008437468223e+006 1.007986053881e+006 1.007986053882e+006 1.007986053882e+006 1.007986053883e+006 1.007986053882e+006 1.007986053882e+006 1.007986053883e+006 1.007986053882e+006 1.007986053882e+006 1.007548939854e+006 1.007548939855e+006 1.007548939855e+006 1.007548939856e+006 1.007548939855e+006 1.007548939856e+006 1.007548939856e+006 1.007548939855e+006 1.007548939854e+006 1.007160323599e+006 1.007160323599e+006 1.007160323600e+006 1.007160323601e+006 1.007160323601e+006 1.007160323600e+006 1.007160323600e+006 1.007160323600e+006 1.007160323599e+006 1.006725109570e+006 1.006725109569e+006 1.006725109569e+006 1.006725109570e+006 1.006725109570e+006 1.006725109569e+006 1.006725109569e+006 1.006725109569e+006 1.006725109570e+006 1.006327695759e+006 1.006327695760e+006 1.006327695760e+006 1.006327695760e+006 1.006327695759e+006 1.006327695759e+006 1.006327695760e+006 1.006327695759e+006 1.006327695758e+006 1.005948108558e+006 1.005948108557e+006 1.005948108557e+006 1.005948108557e+006 1.005948108557e+006 1.005948108556e+006 1.005948108556e+006 1.005948108557e+006 1.005948108557e+006 1.005550933965e+006 1.005550933965e+006 1.005550933964e+006 1.005550933965e+006 1.005550933965e+006 1.005550933964e+006 1.005550933963e+006 1.005550933964e+006 1.005550933963e+006 1.005223378725e+006 1.005223378726e+006 1.005223378726e+006 1.005223378726e+006 1.005223378726e+006 1.005223378726e+006 1.005223378726e+006 1.005223378725e+006 1.005223378726e+006 1.004940858996e+006 1.004940858996e+006 1.004940858997e+006 1.004940858997e+006 1.004940858997e+006 1.004940858997e+006 1.004940858997e+006 1.004940858997e+006 1.004940858997e+006 1.004693804468e+006 1.004693804468e+006 1.004693804469e+006 1.004693804469e+006 1.004693804469e+006 1.004693804469e+006 1.004693804469e+006 1.004693804468e+006 1.004693804468e+006 1.004446752254e+006 1.004446752254e+006 1.004446752254e+006 1.004446752254e+006 1.004446752254e+006 1.004446752254e+006 1.004446752254e+006 1.004446752254e+006 1.004446752253e+006 1.004199701767e+006 1.004199701767e+006 1.004199701767e+006 1.004199701767e+006 1.004199701767e+006 1.004199701767e+006 1.004199701767e+006 1.004199701766e+006 1.004199701767e+006 1.003952652832e+006 1.003952652832e+006 1.003952652832e+006 1.003952652832e+006 1.003952652832e+006 1.003952652832e+006 1.003952652832e+006 1.003952652832e+006 1.003952652832e+006 1.003705605346e+006 1.003705605346e+006 1.003705605346e+006 1.003705605346e+006 1.003705605346e+006 1.003705605346e+006 1.003705605346e+006 1.003705605346e+006 1.003705605345e+006 1.003458559224e+006 1.003458559224e+006 1.003458559224e+006 1.003458559223e+006 1.003458559223e+006 1.003458559223e+006 1.003458559223e+006 1.003458559223e+006 1.003458559223e+006 1.003211514370e+006 1.003211514370e+006 1.003211514370e+006 1.003211514370e+006 1.003211514370e+006 1.003211514370e+006 1.003211514370e+006 1.003211514370e+006 1.003211514370e+006 1.002964470685e+006 1.002964470685e+006 1.002964470685e+006 1.002964470685e+006 1.002964470685e+006 1.002964470685e+006 1.002964470685e+006 1.002964470685e+006 1.002964470685e+006 1.002717428065e+006 1.002717428065e+006 1.002717428065e+006 1.002717428065e+006 1.002717428065e+006 1.002717428065e+006 1.002717428065e+006 1.002717428065e+006 1.002717428065e+006 1.002470386408e+006 1.002470386408e+006 1.002470386408e+006 1.002470386408e+006 1.002470386408e+006 1.002470386408e+006 1.002470386408e+006 1.002470386408e+006 1.002470386408e+006 1.002223345612e+006 1.002223345612e+006 1.002223345612e+006 1.002223345612e+006 1.002223345612e+006 1.002223345612e+006 1.002223345612e+006 1.002223345612e+006 1.002223345612e+006 1.001976305573e+006 1.001976305574e+006 1.001976305573e+006 1.001976305573e+006 1.001976305573e+006 1.001976305574e+006 1.001976305574e+006 1.001976305574e+006 1.001976305574e+006 1.001729266189e+006 1.001729266188e+006 1.001729266188e+006 1.001729266188e+006 1.001729266188e+006 1.001729266189e+006 1.001729266189e+006 1.001729266189e+006 1.001729266189e+006 1.001482227353e+006 1.001482227353e+006 1.001482227353e+006 1.001482227353e+006 1.001482227353e+006 1.001482227353e+006 1.001482227353e+006 1.001482227353e+006 1.001482227353e+006 1.001235188963e+006 1.001235188963e+006 1.001235188963e+006 1.001235188962e+006 1.001235188963e+006 1.001235188963e+006 1.001235188963e+006 1.001235188963e+006 1.001235188963e+006 1.000988150912e+006 1.000988150912e+006 1.000988150912e+006 1.000988150912e+006 1.000988150912e+006 1.000988150912e+006 1.000988150912e+006 1.000988150912e+006 1.000988150912e+006 1.000741113096e+006 1.000741113096e+006 1.000741113096e+006 1.000741113096e+006 1.000741113096e+006 1.000741113096e+006 1.000741113096e+006 1.000741113096e+006 1.000741113096e+006 1.000494075409e+006 1.000494075409e+006 1.000494075409e+006 1.000494075409e+006 1.000494075409e+006 1.000494075409e+006 1.000494075409e+006 1.000494075409e+006 1.000494075409e+006 1.000247037745e+006 1.000247037746e+006 1.000247037746e+006 1.000247037745e+006 1.000247037745e+006 1.000247037745e+006 1.000247037745e+006 1.000247037745e+006 1.000247037745e+006 1.000000000000e+006 1.000000000000e+006 1.000000000000e+006 1.000000000000e+006 1.000000000000e+006 1.000000000000e+006 1.000000000000e+006 1.000000000000e+006 1.000000000000e+006 
        </DataArray>
        <DataArray type="Float64" Name="MOLAR_FRACTION" format="ascii">