<?xml version="1.0"?>
<VTKFile type="UnstructuredGrid" version="0.1" byte_order="LittleEndian">
  <UnstructuredGrid>
    <Piece NumberOfPoints="909" NumberOfCells="800">
      <Points>
        <DataArray type="Float64" NumberOfComponents="3" format="ascii">
          0.000000000000e+000 0.000000000000e+000 0.000000000000e+000
          2.000000000000e+000 0.000000000000e+000 0.000000000000e+000
          2.000000000000e+000 2.500000000000e+000 0.000000000000e+000
          0.000000000000e+000 2.500000000000e+000 0.000000000000e+000
          2.000000000000e+000 5.000000000000e+000 0.000000000000e+000
          0.000000000000e+000 5.000000000000e+000 0.000000000000e+000
          2.000000000000e+000 7.500000000000e+000 0.000000000000e+000
          0.000000000000e+000 7.500000000000e+000 0.000000000000e+000
          2.000000000000e+000 1.000000000000e+001 0.000000000000e+000
          0.000000000000e+000 1.000000000000e+001 0.000000000000e+000
          2.000000000000e+000 1.250000000000e+001 0.000000000000e+000
          0.000000000000e+000 1.250000000000e+001 0.000000000000e+000
          2.000000000000e+000 1.500000000000e+001 0.000000000000e+000
          0.000000000000e+000 1.500000000000e+001 0.000000000000e+000
          2.000000000000e+000 1.750000000000e+001 0.000000000000e+000
          0.000000000000e+000 1.750000000000e+001 0.000000000000e+000
          2.000000000000e+000 2.000000000000e+001 0.000000000000e+000
          0.000000000000e+000 2.000000000000e+001 0.000000000000e+000
          4.000000000000e+000 0.000000000000e+000 0.000000000000e+000
          4.000000000000e+000 2.500000000000e+000 0.000000000000e+000
          4.000000000000e+000 5.000000000000e+000 0.000000000000e+000
          4.000000000000e+000 7.500000000000e+000 0.000000000000e+000
          4.000000000000e+000 1.000000000000e+001 0.000000000000e+000
          4.000000000000e+000 1.250000000000e+001 0.000000000000e+000
          4.000000000000e+000 1.500000000000e+001 0.000000000000e+000
          4.000000000000e+000 1.750000000000e+001 0.000000000000e+000
          4.000000000000e+000 2.000000000000e+001 0.000000000000e+000
          6.000000000000e+000 0.000000000000e+000 0.000000000000e+000
          6.000000000000e+000 2.500000000000e+000 0.000000000000e+000
          6.000000000000e+000 5.000000000000e+000 0.000000000000e+000
          6.000000000000e+000 7.500000000000e+000 0.000000000000e+000
          6.000000000000e+000 1.000000000000e+001 0.000000000000e+000
          6.000000000000e+000 1.250000000000e+001 0.000000000000e+000
          6.000000000000e+000 1.500000000000e+001 0.000000000000e+000
          6.000000000000e+000 1.750000000000e+001 0.000000000000e+000
          6.000000000000e+000 2.000000000000e+001 0.000000000000e+000
          8.000000000000e+000 0.000000000000e+000 0.000000000000e+000
          8.000000000000e+000 2.500000000000e+000 0.000000000000e+000
          8.000000000000e+000 5.000000000000e+000 0.000000000000e+000
          8.000000000000e+000 7.500000000000e+000 0.000000000000e+000
          8.000000000000e+000 1.000000000000e+001 0.000000000000e+000
          8.000000000000e+000 1.250000000000e+001 0.000000000000e+000
          8.000000000000e+000 1.500000000000e+001 0.000000000000e+000
          8.000000000000e+000 1.750000000000e+001 0.000000000000e+000
          8.000000000000e+000 2.000000000000e+001 0.000000000000e+000
          1.000000000000e+001 0.000000000000e+000 0.000000000000e+000
          1.000000000000e+001 2.500000000000e+000 0.000000000000e+000
          1.000000000000e+001 5.000000000000e+000 0.000000000000e+000
          1.000000000000e+001 7.500000000000e+000 0.000000000000e+000
          1.000000000000e+001 1.000000000000e+001 0.000000000000e+000
          1.000000000000e+001 1.250000000000e+001 0.000000000000e+000
          1.000000000000e+001 1.500000000000e+001 0.000000000000e+000
          1.000000000000e+001 1.750000000000e+001 0.000000000000e+000
          1.000000000000e+001 2.000000000000e+001 0.000000000000e+000
          1.200000000000e+001 0.000000000000e+000 0.000000000000e+000
          1.200000000000e+001 2.500000000000e+000 0.000000000000e+000
          1.200000000000e+001 5.000000000000e+000 0.000000000000e+000
          1.200000000000e+001 7.500000000000e+000 0.000000000000e+000
          1.200000000000e+001 1.000000000000e+001 0.000000000000e+000
          1.200000000000e+001 1.250000000000e+001 0.000000000000e+000
          1.200000000000e+001 1.500000000000e+001 0.000000000000e+000
          1.200000000000e+001 1.750000000000e+001 0.000000000000e+000
          1.200000000000e+001 2.000000000000e+001 0.000000000000e+000
          1.400000000000e+001 0.000000000000e+000 0.000000000000e+000
          1.400000000000e+001 2.500000000000e+000 0.000000000000e+000
          1.400000000000e+001 5.000000000000e+000 0.000000000000e+000
          1.400000000000e+001 7.500000000000e+000 0.000000000000e+000
          1.400000000000e+001 1.000000000000e+001 0.000000000000e+000
          1.400000000000e+001 1.250000000000e+001 0.000000000000e+000
          1.400000000000e+001 1.500000000000e+001 0.000000000000e+000
          1.400000000000e+001 1.750000000000e+001 0.000000000000e+000
          1.400000000000e+001 2.000000000000e+001 0.000000000000e+000
          1.600000000000e+001 0.000000000000e+000 0.000000000000e+000
          1.600000000000e+001 2.500000000000e+000 0.000000000000e+000
          1.600000000000e+001 5.000000000000e+000 0.000000000000e+000
          1.600000000000e+001 7.500000000000e+000 0.000000000000e+000
          1.600000000000e+001 1.000000000000e+001 0.000000000000e+000
          1.600000000000e+001 1.250000000000e+001 0.000000000000e+000
          1.600000000000e+001 1.500000000000e+001 0.000000000000e+000
          1.600000000000e+001 1.750000000000e+001 0.000000000000e+000
          1.600000000000e+001 2.000000000000e+001 0.000000000000e+000
          1.800000000000e+001 0.000000000000e+000 0.000000000000e+000
          1.800000000000e+001 2.500000000000e+000 0.000000000000e+000
          1.800000000000e+001 5.000000000000e+000 0.000000000000e+000
          1.800000000000e+001 7.500000000000e+000 0.000000000000e+000
          1.800000000000e+001 1.000000000000e+001 0.000000000000e+000
          1.800000000000e+001 1.250000000000e+001 0.000000000000e+000
          1.800000000000e+001 1.500000000000e+001 0.000000000000e+000
          1.800000000000e+001 1.750000000000e+001 0.000000000000e+000
          1.800000000000e+001 2.000000000000e+001 0.000000000000e+000
          2.000000000000e+001 0.000000000000e+000 0.000000000000e+000
          2.000000000000e+001 2.500000000000e+000 0.000000000000e+000
          2.000000000000e+001 5.000000000000e+000 0.000000000000e+000
          2.000000000000e+001 7.500000000000e+000 0.000000000000e+000
          2.000000000000e+001 1.000000000000e+001 0.000000000000e+000
          2.000000000000e+001 1.250000000000e+001 0.000000000000e+000
          2.000000000000e+001 1.500000000000e+001 0.000000000000e+000
          2.000000000000e+001 1.750000000000e+001 0.000000000000e+000
          2.000000000000e+001 2.000000000000e+001 0.000000000000e+000
          2.200000000000e+001 0.000000000000e+000 0.000000000000e+000
          2.200000000000e+001 2.500000000000e+000 0.000000000000e+000
          2.200000000000e+001 5.000000000000e+000 0.000000000000e+000
          2.200000000000e+001 7.500000000000e+000 0.000000000000e+000
          2.200000000000e+001 1.000000000000e+001 0.000000000000e+000
          2.200000000000e+001 1.250000000000e+001 0.000000000000e+000
          2.200000000000e+001 1.500000000000e+001 0.000000000000e+000
          2.200000000000e+001 1.750000000000e+001 0.000000000000e+000
          2.200000000000e+001 2.000000000000e+001 0.000000000000e+000
          2.400000000000e+001 0.000000000000e+000 0.000000000000e+000
          2.400000000000e+001 2.500000000000e+000 0.000000000000e+000
          2.400000000000e+001 5.000000000000e+000 0.000000000000e+000
          2.400000000000e+001 7.500000000000e+000 0.000000000000e+000
          2.400000000000e+001 1.000000000000e+001 0.000000000000e+000
          2.400000000000e+001 1.250000000000e+001 0.000000000000e+000
          2.400000000000e+001 1.500000000000e+001 0.000000000000e+000
          2.400000000000e+001 1.750000000000e+001 0.000000000000e+000
          2.400000000000e+001 2.000000000000e+001 0.000000000000e+000
          2.600000000000e+001 0.000000000000e+000 0.000000000000e+000
          2.600000000000e+001 2.500000000000e+000 0.000000000000e+000
          2.600000000000e+001 5.000000000000e+000 0.000000000000e+000
          2.600000000000e+001 7.500000000000e+000 0.000000000000e+000
          2.600000000000e+001 1.000000000000e+001 0.000000000000e+000
          2.600000000000e+001 1.250000000000e+001 0.000000000000e+000
          2.600000000000e+001 1.500000000000e+001 0.000000000000e+000
          2.600000000000e+001 1.750000000000e+001 0.000000000000e+000
          2.600000000000e+001 2.000000000000e+001 0.000000000000e+000
          2.800000000000e+001 0.000000000000e+000 0.000000000000e+000
          2.800000000000e+001 2.500000000000e+000 0.000000000000e+000
          2.800000000000e+001 5.000000000000e+000 0.000000000000e+000
          2.800000000000e+001 7.500000000000e+000 0.000000000000e+000
          2.800000000000e+001 1.000000000000e+001 0.000000000000e+000
          2.800000000000e+001 1.250000000000e+001 0.000000000000e+000
          2.800000000000e+001 1.500000000000e+001 0.000000000000e+000
          2.800000000000e+001 1.750000000000e+001 0.000000000000e+000
          2.800000000000e+001 2.000000000000e+001 0.000000000000e+000
          3.000000000000e+001 0.000000000000e+000 0.000000000000e+000
          3.000000000000e+001 2.500000000000e+000 0.000000000000e+000
          3.000000000000e+001 5.000000000000e+000 0.000000000000e+000
          3.000000000000e+001 7.500000000000e+000 0.000000000000e+000
[...]
      <PointData Scalars="LIQUID_PRESSURE">
        <DataArray type="Float64" Name="LIQUID_PRESSURE" format="ascii">
          1.140307480821e+006 1.140312876179e+006 1.140312876197e+006 1.140307480711e+006 1.140312876226e+006 1.140307480636e+006 1.140312876184e+006 1.140307480744e+006 1.140312876209e+006 1.140307480714e+006 1.140312876255e+006 1.140307480557e+006 1.140312876228e+006 1.140307480515e+006 1.140312876240e+006 1.140307480446e+006 1.140312876276e+006 1.140307480358e+006 1.140244904176e+006 1.140244904232e+006 1.140244904265e+006 1.140244904204e+006 1.140244904220e+006 1.140244904294e+006 1.140244904271e+006 1.140244904300e+006 1.140244904348e+006 1.140113594683e+006 1.140113594725e+006 1.140113594749e+006 1.140113594703e+006 1.140113594714e+006 1.140113594755e+006 1.140113594737e+006 1.140113594748e+006 1.140113594772e+006 1.140008260810e+006 1.140008260834e+006 1.140008260855e+006 1.140008260818e+006 1.140008260817e+006 1.140008260838e+006 1.140008260824e+006 1.140008260820e+006 1.140008260834e+006 1.139796502436e+006 1.139796502453e+006 1.139796502461e+006 1.139796502446e+006 1.139796502434e+006 1.139796502453e+006 1.139796502441e+006 1.139796502435e+006 1.139796502444e+006 1.139561137750e+006 1.139561137760e+006 1.139561137768e+006 1.139561137756e+006 1.139561137753e+006 1.139561137759e+006 1.139561137754e+006 1.139561137753e+006 1.139561137753e+006 1.139323593711e+006 1.139323593714e+006 1.139323593718e+006 1.139323593710e+006 1.139323593713e+006 1.139323593711e+006 1.139323593712e+006 1.139323593709e+006 1.139323593710e+006 1.138980755104e+006 1.138980755102e+006 1.138980755104e+006 1.138980755100e+006 1.138980755101e+006 1.138980755103e+006 1.138980755102e+006 1.138980755105e+006 1.138980755100e+006 1.138652354393e+006 1.138652354392e+006 1.138652354393e+006 1.138652354391e+006 1.138652354390e+006 1.138652354389e+006 1.138652354390e+006 1.138652354390e+006 1.138652354391e+006 1.138255110248e+006 1.138255110252e+006 1.138255110251e+006 1.138255110249e+006 1.138255110249e+006 1.138255110249e+006 1.138255110249e+006 1.138255110250e+006 1.138255110250e+006 1.137807550823e+006 1.137807550826e+006 1.137807550824e+006 1.137807550824e+006 1.137807550822e+006 1.137807550822e+006 1.137807550828e+006 1.137807550825e+006 1.137807550828e+006 1.137344742414e+006 1.137344742413e+006 1.137344742414e+006 1.137344742414e+006 1.137344742413e+006 1.137344742416e+006 1.137344742413e+006 1.137344742414e+006 1.137344742414e+006 1.136808365941e+006 1.136808365940e+006 1.136808365944e+006 1.136808365944e+006 1.136808365945e+006 1.136808365944e+006 1.136808365943e+006 1.136808365942e+006 1.136808365942e+006 1.136271100745e+006 1.136271100748e+006 1.136271100746e+006 1.136271100749e+006 1.136271100747e+006 1.136271100748e+006 1.136271100749e+006 1.136271100749e+006 1.136271100746e+006 1.135661245090e+006 1.135661245090e+006 1.135661245092e+006 1.135661245089e+006 1.135661245092e+006 1.135661245089e+006 1.135661245091e+006 1.135661245089e+006 1.135661245090e+006 1.135027248504e+006 1.135027248500e+006 1.135027248501e+006 1.135027248501e+006 1.135027248498e+006 1.135027248502e+006 1.135027248500e+006 1.135027248501e+006 1.135027248499e+006 1.134347287255e+006 1.134347287256e+006 1.134347287255e+006 1.134347287257e+006 1.134347287256e+006 1.134347287255e+006 1.134347287256e+006 1.134347287257e+006 1.134347287256e+006 1.133603366667e+006 1.133603366668e+006 1.133603366667e+006 1.133603366666e+006 1.133603366668e+006 1.133603366669e+006 1.133603366667e+006 1.133603366667e+006 1.133603366669e+006 1.132859937345e+006 1.132859937344e+006 1.132859937343e+006 1.132859937343e+006 1.132859937344e+006 1.132859937344e+006 1.132859937344e+006 1.132859937343e+006 1.132859937345e+006 1.132037039147e+006 1.132037039145e+006 1.132037039147e+006 1.132037039146e+006 1.132037039146e+006 1.132037039147e+006 1.132037039145e+006 1.132037039145e+006 1.132037039145e+006 1.131198088340e+006 1.131198088340e+006 1.131198088341e+006 1.131198088339e+006 1.131198088339e+006 1.131198088339e+006 1.131198088339e+006 1.131198088340e+006 1.131198088338e+006 1.130310162841e+006 1.130310162839e+006 1.130310162840e+006 1.130310162841e+006 1.130310162840e+006 1.130310162841e+006 1.130310162841e+006 1.130310162840e+006 1.130310162841e+006 1.129381891340e+006 1.129381891341e+006 1.129381891340e+006 1.129381891340e+006 1.129381891339e+006 1.129381891340e+006 1.129381891340e+006 1.129381891340e+006 1.129381891340e+006 1.128414614194e+006 1.128414614193e+006 1.128414614193e+006 1.128414614192e+006 1.128414614193e+006 1.128414614192e+006 1.128414614193e+006 1.128414614193e+006 1.128414614193e+006 1.127387519833e+006 1.127387519833e+006 1.127387519834e+006 1.127387519835e+006 1.127387519834e+006 1.127387519834e+006 1.127387519834e+006 1.127387519834e+006 1.127387519833e+006 1.126345944768e+006 1.126345944767e+006 1.126345944768e+006 1.126345944768e+006 1.126345944768e+006 1.126345944768e+006 1.126345944767e+006 1.126345944768e+006 1.126345944767e+006 1.125241990917e+006 1.125241990918e+006 1.125241990918e+006 1.125241990918e+006 1.125241990918e+006 1.125241990918e+006 1.125241990918e+006 1.125241990918e+006 1.125241990918e+006 1.124109809748e+006 1.124109809749e+006 1.124109809748e+006 1.124109809748e+006 1.124109809748e+006 1.124109809748e+006 1.124109809748e+006 1.124109809748e+006 1.124109809748e+006 1.122946437869e+006 1.122946437869e+006 1.122946437869e+006 1.122946437869e+006 1.122946437869e+006 1.122946437869e+006 1.122946437869e+006 1.122946437869e+006 1.122946437869e+006 1.121713262584e+006 1.121713262585e+006 1.121713262584e+006 1.121713262584e+006 1.121713262585e+006 1.121713262584e+006 1.121713262585e+006 1.121713262585e+006 1.121713262585e+006 1.120468139831e+006 1.120468139831e+006 1.120468139830e+006 1.120468139830e+006 1.120468139830e+006 1.120468139830e+006 1.120468139831e+006 1.120468139831e+006 1.120468139831e+006 1.119162852243e+006 1.119162852243e+006 1.119162852243e+006 1.119162852243e+006 1.119162852243e+006 1.119162852243e+006 1.119162852243e+006 1.119162852243e+006 1.119162852242e+006 1.117811463947e+006 1.117811463947e+006 1.117811463947e+006 1.117811463947e+006 1.117811463947e+006 1.117811463947e+006 1.117811463947e+006 1.117811463947e+006 1.117811463947e+006 1.116444333928e+006 1.116444333928e+006 1.116444333928e+006 1.116444333928e+006 1.116444333928e+006 1.116444333929e+006 1.116444333928e+006 1.116444333928e+006 1.116444333928e+006 1.115009920079e+006 1.115009920079e+006 1.115009920079e+006 1.115009920079e+006 1.115009920079e+006 1.115009920079e+006 1.115009920079e+006 1.115009920079e+006 1.115009920078e+006 1.113550605270e+006 1.113550605270e+006 1.113550605270e+006 1.113550605270e+006 1.113550605270e+006 1.113550605270e+006 1.113550605270e+006 1.113550605270e+006 1.113550605270e+006 1.112058972304e+006 1.112058972304e+006 1.112058972304e+006 1.112058972304e+006 1.112058972304e+006 1.112058972304e+006 1.112058972304e+006 1.112058972304e+006 1.112058972304e+006 1.110508958071e+006 1.110508958071e+006 1.110508958071e+006 1.110508958071e+006 1.110508958071e+006 1.110508958071e+006 1.110508958071e+006 1.110508958071e+006 1.110508958071e+006 1.108933047644e+006 1.108933047644e+006 1.108933047643e+006 1.108933047644e+006 1.108933047643e+006 1.108933047643e+006 1.108933047643e+006 1.108933047643e+006 1.108933047643e+006 1.107325818835e+006 1.107325818835e+006 1.107325818835e+006 1.107325818835e+006 1.107325818835e+006 1.107325818835e+006 1.107325818835e+006 1.107325818835e+006 1.107325818835e+006 1.105640054534e+006 1.105640054534e+006 1.105640054534e+006 1.105640054534e+006 1.105640054534e+006 1.105640054534e+006 1.105640054534e+006 1.105640054534e+006 1.105640054534e+006 1.103938826828e+006 1.103938826828e+006 1.103938826828e+006 1.103938826828e+006 1.103938826828e+006 1.103938826828e+006 1.103938826828e+006 1.103938826828e+006 1.103938826828e+006 1.102200927958e+006 1.102200927958e+006 1.102200927958e+006 1.102200927958e+006 1.102200927958e+006 1.102200927958e+006 1.102200927958e+006 1.102200927958e+006 1.102200927957e+006 1.100427817580e+006 1.100427817581e+006 1.100427817580e+006 1.100427817580e+006 1.100427817581e+006 1.100427817581e+006 1.100427817580e+006 1.100427817580e+006 1.100427817581e+006 1.098605886991e+006 1.098605886991e+006 1.098605886991e+006 1.098605886991e+006 1.098605886991e+006 1.098605886991e+006 1.098605886991e+006 1.098605886991e+006 1.098605886991e+006 1.096714731781e+006 1.096714731781e+006 1.096714731781e+006 1.096714731781e+006 1.096714731781e+006 1.096714731781e+006 1.096714731781e+006 1.096714731781e+006 1.096714731780e+006 1.094802645724e+006 1.094802645724e+006 1.094802645724e+006 1.094802645724e+006 1.094802645724e+006 1.094802645724e+006 1.094802645724e+006 1.094802645724e+006 1.094802645724e+006 1.092909102946e+006 1.092909102946e+006 1.092909102946e+006 1.092909102946e+006 1.092909102946e+006 1.092909102946e+006 1.092909102946e+006 1.092909102946e+006 1.092909102946e+006 1.090924721693e+006 1.090924721693e+006 1.090924721693e+006 1.090924721692e+006 1.090924721692e+006 1.090924721692e+006 1.090924721692e+006 1.090924721692e+006 1.090924721692e+006 1.088891164266e+006 1.088891164266e+006 1.088891164266e+006 1.088891164266e+006 1.088891164266e+006 1.088891164266e+006 1.088891164266e+006 1.088891164266e+006 1.088891164266e+006 1.086816602287e+006 1.086816602286e+006 1.086816602286e+006 1.086816602286e+006 1.086816602286e+006 1.086816602286e+006 1.086816602286e+006 1.086816602286e+006 1.086816602286e+006 1.084722493762e+006 1.084722493762e+006 1.084722493762e+006 1.084722493762e+006 1.084722493762e+006 1.084722493762e+006 1.084722493762e+006 1.084722493762e+006 1.084722493762e+006 1.082658503853e+006 1.082658503853e+006 1.082658503853e+006 1.082658503853e+006 1.082658503854e+006 1.082658503854e+006 1.082658503853e+006 1.082658503853e+006 1.082658503853e+006 1.080564636518e+006 1.080564636518e+006 1.080564636518e+006 1.080564636518e+006 1.080564636518e+006 1.080564636518e+006 1.080564636517e+006 1.080564636518e+006 1.080564636518e+006 1.078402270341e+006 1.078402270341e+006 1.078402270341e+006 1.078402270341e+006 1.078402270341e+006 1.078402270341e+006 1.078402270340e+006 1.078402270340e+006 1.078402270340e+006 1.076167647304e+006 1.076167647304e+006 1.076167647304e+006 1.076167647303e+006 1.076167647303e+006 1.076167647303e+006 1.076167647303e+006 1.076167647303e+006 1.076167647303e+006 1.073917043211e+006 1.073917043211e+006 1.073917043211e+006 1.073917043211e+006 1.073917043211e+006 1.073917043211e+006 1.073917043211e+006 1.073917043211e+006 1.073917043211e+006 1.071611909178e+006 1.071611909178e+006 1.071611909179e+006 1.071611909179e+006 1.071611909178e+006 1.071611909178e+006 1.071611909179e+006 1.071611909179e+006 1.071611909179e+006 1.069297104674e+006 1.069297104674e+006 1.069297104675e+006 1.069297104675e+006 1.069297104674e+006 1.069297104674e+006 1.069297104675e+006 1.069297104675e+006 1.069297104675e+006 1.067139636551e+006 1.067139636551e+006 1.067139636551e+006 1.067139636551e+006 1.067139636551e+006 1.067139636551e+006 1.067139636551e+006 1.067139636551e+006 1.067139636552e+006 1.065156154549e+006 1.065156154549e+006 1.065156154548e+006 1.065156154548e+006 1.065156154548e+006 1.065156154548e+006 1.065156154548e+006 1.065156154549e+006 1.065156154549e+006 1.063253135205e+006 1.063253135205e+006 1.063253135205e+006 1.063253135204e+006 1.063253135204e+006 1.063253135204e+006 1.063253135204e+006 1.063253135205e+006 1.063253135204e+006 1.061587727529e+006 1.061587727529e+006 1.061587727529e+006 1.061587727529e+006 1.061587727529e+006 1.061587727529e+006 1.061587727529e+006 1.061587727529e+006 1.061587727529e+006 1.059922392524e+006 1.059922392524e+006 1.059922392523e+006 1.059922392523e+006 1.059922392523e+006 1.059922392523e+006 1.059922392523e+006 1.059922392523e+006 1.059922392523e+006 1.058257126039e+006 1.058257126039e+006 1.058257126039e+006 1.058257126039e+006 1.058257126039e+006 1.058257126039e+006 1.058257126039e+006 1.058257126038e+006 1.058257126039e+006 1.056591924813e+006 1.056591924813e+006 1.056591924813e+006 1.056591924813e+006 1.056591924813e+006 1.056591924813e+006 1.056591924813e+006 1.056591924813e+006 1.056591924813e+006 1.054926786238e+006 1.054926786238e+006 1.054926786238e+006 1.054926786238e+006 1.054926786238e+006 1.054926786238e+006 1.054926786238e+006 1.054926786238e+006 1.054926786238e+006 1.053261708111e+006 1.053261708111e+006 1.053261708111e+006 1.053261708111e+006 1.053261708111e+006 1.053261708111e+006 1.053261708111e+006 1.053261708111e+006 1.053261708111e+006 1.051596688458e+006 1.051596688458e+006 1.051596688458e+006 1.051596688458e+006 1.051596688458e+006 1.051596688458e+006 1.051596688458e+006 1.051596688458e+006 1.051596688458e+006 1.049931725412e+006 1.049931725412e+006 1.049931725412e+006 1.049931725412e+006 1.049931725413e+006 1.049931725413e+006 1.049931725413e+006 1.049931725412e+006 1.049931725412e+006 1.048266817152e+006 1.048266817152e+006 1.048266817152e+006 1.048266817152e+006 1.048266817152e+006 1.048266817153e+006 1.048266817152e+006 1.048266817152e+006 1.048266817152e+006 1.046601961862e+006 1.046601961862e+006 1.046601961862e+006 1.046601961862e+006 1.046601961862e+006 1.046601961862e+006 1.046601961862e+006 1.046601961862e+006 1.046601961862e+006 1.044937157717e+006 1.044937157717e+006 1.044937157717e+006 1.044937157717e+006 1.044937157717e+006 1.044937157717e+006 1.044937157717e+006 1.044937157717e+006 1.044937157717e+006 1.043272402882e+006 1.043272402882e+006 1.043272402882e+006 1.043272402882e+006 1.043272402882e+006 1.043272402882e+006 1.043272402882e+006 1.043272402882e+006 1.043272402882e+006 1.041607695510e+006 1.041607695509e+006 1.041607695509e+006 1.041607695509e+006 1.041607695510e+006 1.041607695509e+006 1.041607695509e+006 1.041607695509e+006 1.041607695509e+006 1.039943033743e+006 1.039943033743e+006 1.039943033743e+006 1.039943033743e+006 1.039943033743e+006 1.039943033743e+006 1.039943033743e+006 1.039943033743e+006 1.039943033743e+006 1.038278415721e+006 1.038278415721e+006 1.038278415721e+006 1.038278415721e+006 1.038278415721e+006 1.038278415721e+006 1.038278415721e+006 1.038278415721e+006 1.038278415721e+006 1.036613839576e+006 1.036613839576e+006 1.036613839576e+006 1.036613839576e+006 1.036613839576e+006 1.036613839576e+006 1.036613839576e+006 1.036613839576e+006 1.036613839576e+006 1.034949303443e+006 1.034949303443e+006 1.034949303443e+006 1.034949303443e+006 1.034949303443e+006 1.034949303443e+006 1.034949303443e+006 1.034949303443e+006 1.034949303443e+006 1.033284805454e+006 1.033284805453e+006 1.033284805454e+006 1.033284805454e+006 1.033284805454e+006 1.033284805454e+006 1.033284805454e+006 1.033284805454e+006 1.033284805453e+006 1.031620343743e+006 1.031620343743e+006 1.031620343744e+006 1.031620343744e+006 1.031620343744e+006 1.031620343744e+006 1.031620343744e+006 1.031620343744e+006 1.031620343743e+006 1.029955916450e+006 1.029955916450e+006 1.029955916450e+006 1.029955916450e+006 1.029955916450e+006 1.029955916450e+006 1.029955916450e+006 1.029955916450e+006 1.029955916450e+006 1.028291521711e+006 1.028291521711e+006 1.028291521711e+006 1.028291521711e+006 1.028291521711e+006 1.028291521711e+006 1.028291521711e+006 1.028291521711e+006 1.028291521711e+006 1.026627157670e+006 1.026627157670e+006 1.026627157670e+006 1.026627157670e+006 1.026627157670e+006 1.026627157670e+006 1.026627157670e+006 1.026627157670e+006 1.026627157670e+006 1.024962822470e+006 1.024962822470e+006 1.024962822470e+006 1.024962822470e+006 1.024962822470e+006 1.024962822470e+006 1.024962822470e+006 1.024962822470e+006 1.024962822470e+006 1.023298514259e+006 1.023298514259e+006 1.023298514259e+006 1.023298514259e+006 1.023298514259e+006 1.023298514259e+006 1.023298514259e+006 1.023298514259e+006 1.023298514259e+006 1.021634231186e+006 1.021634231186e+006 1.021634231186e+006 1.021634231186e+006 1.021634231186e+006 1.021634231186e+006 1.021634231186e+006 1.021634231186e+006 1.021634231186e+006 1.019969971403e+006 1.019969971403e+006 1.019969971403e+006 1.019969971403e+006 1.019969971403e+006 1.019969971403e+006 1.019969971403e+006 1.019969971403e+006 1.019969971403e+006 1.018305733063e+006 1.018305733063e+006 1.018305733063e+006 1.018305733063e+006 1.018305733063e+006 1.018305733063e+006 1.018305733063e+006 1.018305733063e+006 1.018305733063e+006 1.016641514322e+006 1.016641514322e+006 1.016641514322e+006 1.016641514322e+006 1.016641514322e+006 1.016641514322e+006 1.016641514322e+006 1.016641514322e+006 1.016641514322e+006 1.014977313337e+006 1.014977313337e+006 1.014977313337e+006 1.014977313337e+006 1.014977313337e+006 1.014977313337e+006 1.014977313337e+006 1.014977313337e+006 1.014977313337e+006 1.013313128268e+006 1.013313128268e+006 1.013313128268e+006 1.013313128268e+006 1.013313128268e+006 1.013313128268e+006 1.013313128268e+006 1.013313128268e+006 1.013313128268e+006 1.011648957273e+006 1.011648957273e+006 1.011648957273e+006 1.011648957273e+006 1.011648957273e+006 1.011648957273e+006 1.011648957273e+006 1.011648957273e+006 1.011648957273e+006 1.009984798514e+006 1.009984798514e+006 1.009984798514e+006 1.009984798514e+006 1.009984798514e+006 1.009984798514e+006 1.009984798514e+006 1.009984798514e+006 1.009984798514e+006 1.008320650153e+006 1.008320650153e+006 1.008320650153e+006 1.008320650153e+006 1.008320650153e+006 1.008320650153e+006 1.008320650153e+006 1.008320650153e+006 1.008320650153e+006 1.006656510351e+006 1.006656510351e+006 1.006656510351e+006 1.006656510351e+006 1.006656510351e+006 1.006656510351e+006 1.006656510351e+006 1.006656510351e+006 1.006656510351e+006 1.004992377272e+006 1.004992377272e+006 1.004992377272e+006 1.004992377272e+006 1.004992377272e+006 1.004992377272e+006 1.004992377272e+006 1.004992377272e+006 1.004992377272e+006 1.003328249079e+006 1.003328249079e+006 1.003328249079e+006 1.003328249079e+006 1.003328249079e+006 1.003328249079e+006 1.003328249079e+006 1.003328249079e+006 1.003328249079e+006 1.001664123934e+006 1.001664123934e+006 1.001664123934e+006 1.001664123934e+006 1.001664123934e+006 1.001664123934e+006 1.001664123934e+006 1.001664123934e+006 1.001664123934e+006 1.000000000000e+006 1.000000000000e+006 1.000000000000e+006 1.000000000000e+006 1.000000000000e+006 1.000000000000e+006 1.000000000000e+006 1.000000000000e+006 1.000000000000e+006 
        </DataArray>
        <DataArray type="Float64" Name="MOLAR_FRACTION" format="ascii">