<?xml version="1.0"?>
<VTKFile type="UnstructuredGrid" version="0.1" byte_order="LittleEndian">
  <UnstructuredGrid>
    <Piece NumberOfPoints="909" NumberOfCells="800">
      <Points>
        <DataArray type="Float64" NumberOfComponents="3" format="ascii">
          0.000000000000e+000 0.000000000000e+000 0.000000000000e+000
          2.000000000000e+000 0.000000000000e+000 0.000000000000e+000
          2.000000000000e+000 2.500000000000e+000 0.000000000000e+000
          0.000000000000e+000 2.500000000000e+000 0.000000000000e+000
          2.000000000000e+000 5.000000000000e+000 0.000000000000e+000
          0.000000000000e+000 5.000000000000e+000 0.000000000000e+000
          2.000000000000e+000 7.500000000000e+000 0.000000000000e+000
          0.000000000000e+000 7.500000000000e+000 0.000000000000e+000
          2.000000000000e+000 1.000000000000e+001 0.000000000000e+000
          0.000000000000e+000 1.000000000000e+001 0.000000000000e+000
          2.000000000000e+000 1.250000000000e+001 0.000000000000e+000
          0.000000000000e+000 1.250000000000e+001 0.000000000000e+000
          2.000000000000e+000 1.500000000000e+001 0.000000000000e+000
          0.000000000000e+000 1.500000000000e+001 0.000000000000e+000
          2.000000000000e+000 1.750000000000e+001 0.000000000000e+000
          0.000000000000e+000 1.750000000000e+001 0.000000000000e+000
          2.000000000000e+000 2.000000000000e+001 0.000000000000e+000
          0.000000000000e+000 2.000000000000e+001 0.000000000000e+000
          4.000000000000e+000 0.000000000000e+000 0.000000000000e+000
          4.000000000000e+000 2.500000000000e+000 0.000000000000e+000
          4.000000000000e+000 5.000000000000e+000 0.000000000000e+000
          4.000000000000e+000 7.500000000000e+000 0.000000000000e+000
          4.000000000000e+000 1.000000000000e+001 0.000000000000e+000
          4.000000000000e+000 1.250000000000e+001 0.000000000000e+000
          4.000000000000e+000 1.500000000000e+001 0.000000000000e+000
          4.000000000000e+000 1.750000000000e+001 0.000000000000e+000
          4.000000000000e+000 2.000000000000e+001 0.000000000000e+000
          6.000000000000e+000 0.000000000000e+000 0.000000000000e+000
          6.000000000000e+000 2.500000000000e+000 0.000000000000e+000
          6.000000000000e+000 5.000000000000e+000 0.000000000000e+000
          6.000000000000e+000 7.500000000000e+000 0.000000000000e+000
          6.000000000000e+000 1.000000000000e+001 0.000000000000e+000
          6.000000000000e+000 1.250000000000e+001 0.000000000000e+000
          6.000000000000e+000 1.500000000000e+001 0.000000000000e+000
          6.000000000000e+000 1.750000000000e+001 0.000000000000e+000
          6.000000000000e+000 2.000000000000e+001 0.000000000000e+000
          8.000000000000e+000 0.000000000000e+000 0.000000000000e+000
          8.000000000000e+000 2.500000000000e+000 0.000000000000e+000
          8.000000000000e+000 5.000000000000e+000 0.000000000000e+000
          8.000000000000e+000 7.500000000000e+000 0.000000000000e+000
          8.000000000000e+000 1.000000000000e+001 0.000000000000e+000
          8.000000000000e+000 1.250000000000e+001 0.000000000000e+000
          8.000000000000e+000 1.500000000000e+001 0.000000000000e+000
          8.000000000000e+000 1.750000000000e+001 0.000000000000e+000
          8.000000000000e+000 2.000000000000e+001 0.000000000000e+000
          1.000000000000e+001 0.000000000000e+000 0.000000000000e+000
          1.000000000000e+001 2.500000000000e+000 0.000000000000e+000
          1.000000000000e+001 5.000000000000e+000 0.000000000000e+000
          1.000000000000e+001 7.500000000000e+000 0.000000000000e+000
          1.000000000000e+001 1.000000000000e+001 0.000000000000e+000
          1.000000000000e+001 1.250000000000e+001 0.000000000000e+000
          1.000000000000e+001 1.500000000000e+001 0.000000000000e+000
          1.000000000000e+001 1.750000000000e+001 0.000000000000e+000
          1.000000000000e+001 2.000000000000e+001 0.000000000000e+000
          1.200000000000e+001 0.000000000000e+000 0.000000000000e+000
          1.200000000000e+001 2.500000000000e+000 0.000000000000e+000
          1.200000000000e+001 5.000000000000e+000 0.000000000000e+000
          1.200000000000e+001 7.500000000000e+000 0.000000000000e+000
          1.200000000000e+001 1.000000000000e+001 0.000000000000e+000
          1.200000000000e+001 1.250000000000e+001 0.000000000000e+000
          1.200000000000e+001 1.500000000000e+001 0.000000000000e+000
          1.200000000000e+001 1.750000000000e+001 0.000000000000e+000
          1.200000000000e+001 2.000000000000e+001 0.000000000000e+000
          1.400000000000e+001 0.000000000000e+000 0.000000000000e+000
          1.400000000000e+001 2.500000000000e+000 0.000000000000e+000
          1.400000000000e+001 5.000000000000e+000 0.000000000000e+000
          1.400000000000e+001 7.500000000000e+000 0.000000000000e+000
          1.400000000000e+001 1.000000000000e+001 0.000000000000e+000
          1.400000000000e+001 1.250000000000e+001 0.000000000000e+000
          1.400000000000e+001 1.500000000000e+001 0.000000000000e+000
          1.400000000000e+001 1.750000000000e+001 0.000000000000e+000
          1.400000000000e+001 2.000000000000e+001 0.000000000000e+000
          1.600000000000e+001 0.000000000000e+000 0.000000000000e+000
          1.600000000000e+001 2.500000000000e+000 0.000000000000e+000
          1.600000000000e+001 5.000000000000e+000 0.000000000000e+000
          1.600000000000e+001 7.500000000000e+000 0.000000000000e+000
          1.600000000000e+001 1.000000000000e+001 0.000000000000e+000
          1.600000000000e+001 1.250000000000e+001 0.000000000000e+000
          1.600000000000e+001 1.500000000000e+001 0.000000000000e+000
          1.600000000000e+001 1.750000000000e+001 0.000000000000e+000
          1.600000000000e+001 2.000000000000e+001 0.000000000000e+000
          1.800000000000e+001 0.000000000000e+000 0.000000000000e+000
          1.800000000000e+001 2.500000000000e+000 0.000000000000e+000
          1.800000000000e+001 5.000000000000e+000 0.000000000000e+000
          1.800000000000e+001 7.500000000000e+000 0.000000000000e+000
          1.800000000000e+001 1.000000000000e+001 0.000000000000e+000
          1.800000000000e+001 1.250000000000e+001 0.000000000000e+000
          1.800000000000e+001 1.500000000000e+001 0.000000000000e+000
          1.800000000000e+001 1.750000000000e+001 0.000000000000e+000
          1.800000000000e+001 2.000000000000e+001 0.000000000000e+000
          2.000000000000e+001 0.000000000000e+000 0.000000000000e+000
          2.000000000000e+001 2.500000000000e+000 0.000000000000e+000
          2.000000000000e+001 5.000000000000e+000 0.000000000000e+000
          2.000000000000e+001 7.500000000000e+000 0.000000000000e+000
          2.000000000000e+001 1.000000000000e+001 0.000000000000e+000
          2.000000000000e+001 1.250000000000e+001 0.000000000000e+000
          2.000000000000e+001 1.500000000000e+001 0.000000000000e+000
          2.000000000000e+001 1.750000000000e+001 0.000000000000e+000
          2.000000000000e+001 2.000000000000e+001 0.000000000000e+000
          2.200000000000e+001 0.000000000000e+000 0.000000000000e+000
          2.200000000000e+001 2.500000000000e+000 0.000000000000e+000
          2.200000000000e+001 5.000000000000e+000 0.000000000000e+000
          2.200000000000e+001 7.500000000000e+000 0.000000000000e+000
          2.200000000000e+001 1.000000000000e+001 0.000000000000e+000
          2.200000000000e+001 1.250000000000e+001 0.000000000000e+000
          2.200000000000e+001 1.500000000000e+001 0.000000000000e+000
          2.200000000000e+001 1.750000000000e+001 0.000000000000e+000
          2.200000000000e+001 2.000000000000e+001 0.000000000000e+000
          2.400000000000e+001 0.000000000000e+000 0.000000000000e+000
          2.400000000000e+001 2.500000000000e+000 0.000000000000e+000
          2.400000000000e+001 5.000000000000e+000 0.000000000000e+000
          2.400000000000e+001 7.500000000000e+000 0.000000000000e+000
          2.400000000000e+001 1.000000000000e+001 0.000000000000e+000
          2.400000000000e+001 1.250000000000e+001 0.000000000000e+000
          2.400000000000e+001 1.500000000000e+001 0.000000000000e+000
          2.400000000000e+001 1.750000000000e+001 0.000000000000e+000
          2.400000000000e+001 2.000000000000e+001 0.000000000000e+000
          2.600000000000e+001 0.000000000000e+000 0.000000000000e+000
          2.600000000000e+001 2.500000000000e+000 0.000000000000e+000
          2.600000000000e+001 5.000000000000e+000 0.000000000000e+000
          2.600000000000e+001 7.500000000000e+000 0.000000000000e+000
          2.600000000000e+001 1.000000000000e+001 0.000000000000e+000
          2.600000000000e+001 1.250000000000e+001 0.000000000000e+000
          2.600000000000e+001 1.500000000000e+001 0.000000000000e+000
          2.600000000000e+001 1.750000000000e+001 0.000000000000e+000
          2.600000000000e+001 2.000000000000e+001 0.000000000000e+000
          2.800000000000e+001 0.000000000000e+000 0.000000000000e+000
          2.800000000000e+001 2.500000000000e+000 0.000000000000e+000
          2.800000000000e+001 5.000000000000e+000 0.000000000000e+000
          2.800000000000e+001 7.500000000000e+000 0.000000000000e+000
          2.800000000000e+001 1.000000000000e+001 0.000000000000e+000
          2.800000000000e+001 1.250000000000e+001 0.000000000000e+000
          2.800000000000e+001 1.500000000000e+001 0.000000000000e+000
          2.800000000000e+001 1.750000000000e+001 0.000000000000e+000
          2.800000000000e+001 2.000000000000e+001 0.000000000000e+000
          3.000000000000e+001 0.000000000000e+000 0.000000000000e+000
          3.000000000000e+001 2.500000000000e+000 0.000000000000e+000
          3.000000000000e+001 5.000000000000e+000 0.000000000000e+000
          3.000000000000e+001 7.500000000000e+000 0.000000000000e+000
[...]
      <PointData Scalars="LIQUID_PRESSURE">
        <DataArray type="Float64" Name="LIQUID_PRESSURE" format="ascii">
          1.005763307459e+006 1.005773782780e+006 1.005773782788e+006 1.005763307404e+006 1.005773782806e+006 1.005763307356e+006 1.005773782775e+006 1.005763307422e+006 1.005773782792e+006 1.005763307407e+006 1.005773782823e+006 1.005763307327e+006 1.005773782823e+006 1.005763307339e+006 1.005773782836e+006 1.005763307317e+006 1.005773782856e+006 1.005763307262e+006 1.005773780377e+006 1.005773780402e+006 1.005773780408e+006 1.005773780387e+006 1.005773780388e+006 1.005773780409e+006 1.005773780391e+006 1.005773780401e+006 1.005773780420e+006 1.005745587952e+006 1.005745587961e+006 1.005745587965e+006 1.005745587955e+006 1.005745587957e+006 1.005745587966e+006 1.005745587957e+006 1.005745587951e+006 1.005745587957e+006 1.005762409651e+006 1.005762409655e+006 1.005762409657e+006 1.005762409649e+006 1.005762409649e+006 1.005762409655e+006 1.005762409646e+006 1.005762409644e+006 1.005762409650e+006 1.005740567604e+006 1.005740567610e+006 1.005740567606e+006 1.005740567606e+006 1.005740567603e+006 1.005740567610e+006 1.005740567599e+006 1.005740567604e+006 1.005740567613e+006 1.005717421817e+006 1.005717421815e+006 1.005717421818e+006 1.005717421820e+006 1.005717421820e+006 1.005717421820e+006 1.005717421817e+006 1.005717421820e+006 1.005717421820e+006 1.005726761028e+006 1.005726761022e+006 1.005726761026e+006 1.005726761027e+006 1.005726761024e+006 1.005726761025e+006 1.005726761025e+006 1.005726761023e+006 1.005726761028e+006 1.005684659215e+006 1.005684659202e+006 1.005684659210e+006 1.005684659209e+006 1.005684659205e+006 1.005684659203e+006 1.005684659207e+006 1.005684659208e+006 1.005684659202e+006 1.005679549425e+006 1.005679549420e+006 1.005679549425e+006 1.005679549424e+006 1.005679549422e+006 1.005679549419e+006 1.005679549427e+006 1.005679549421e+006 1.005679549421e+006 1.005657678376e+006 1.005657678388e+006 1.005657678386e+006 1.005657678385e+006 1.005657678387e+006 1.005657678384e+006 1.005657678390e+006 1.005657678389e+006 1.005657678382e+006 1.005623957055e+006 1.005623957057e+006 1.005623957056e+006 1.005623957056e+006 1.005623957055e+006 1.005623957047e+006 1.005623957063e+006 1.005623957062e+006 1.005623957053e+006 1.005613726215e+006 1.005613726208e+006 1.005613726218e+006 1.005613726211e+006 1.005613726212e+006 1.005613726214e+006 1.005613726209e+006 1.005613726210e+006 1.005613726218e+006 1.005568996541e+006 1.005568996537e+006 1.005568996532e+006 1.005568996536e+006 1.005568996536e+006 1.005568996533e+006 1.005568996535e+006 1.005568996530e+006 1.005568996534e+006 1.005553661118e+006 1.005553661113e+006 1.005553661108e+006 1.005553661114e+006 1.005553661113e+006 1.005553661115e+006 1.005553661112e+006 1.005553661113e+006 1.005553661111e+006 1.005513277022e+006 1.005513277026e+006 1.005513277027e+006 1.005513277024e+006 1.005513277026e+006 1.005513277018e+006 1.005513277022e+006 1.005513277020e+006 1.005513277024e+006 1.005479438908e+006 1.005479438906e+006 1.005479438903e+006 1.005479438904e+006 1.005479438906e+006 1.005479438900e+006 1.005479438905e+006 1.005479438904e+006 1.005479438905e+006 1.005453364421e+006 1.005453364431e+006 1.005453364423e+006 1.005453364430e+006 1.005453364429e+006 1.005453364430e+006 1.005453364434e+006 1.005453364424e+006 1.005453364429e+006 1.005398012958e+006 1.005398012956e+006 1.005398012956e+006 1.005398012948e+006 1.005398012952e+006 1.005398012961e+006 1.005398012952e+006 1.005398012958e+006 1.005398012957e+006 1.005377155196e+006 1.005377155187e+006 1.005377155188e+006 1.005377155192e+006 1.005377155191e+006 1.005377155184e+006 1.005377155189e+006 1.005377155189e+006 1.005377155197e+006 1.005321955124e+006 1.005321955120e+006 1.005321955119e+006 1.005321955129e+006 1.005321955120e+006 1.005321955122e+006 1.005321955124e+006 1.005321955121e+006 1.005321955130e+006 1.005284704954e+006 1.005284704957e+006 1.005284704957e+006 1.005284704952e+006 1.005284704953e+006 1.005284704953e+006 1.005284704953e+006 1.005284704953e+006 1.005284704952e+006 1.005238816339e+006 1.005238816342e+006 1.005238816343e+006 1.005238816341e+006 1.005238816342e+006 1.005238816346e+006 1.005238816341e+006 1.005238816341e+006 1.005238816342e+006 1.005187747601e+006 1.005187747592e+006 1.005187747594e+006 1.005187747594e+006 1.005187747599e+006 1.005187747596e+006 1.005187747598e+006 1.005187747599e+006 1.005187747594e+006 1.005147432550e+006 1.005147432548e+006 1.005147432545e+006 1.005147432547e+006 1.005147432549e+006 1.005147432547e+006 1.005147432552e+006 1.005147432550e+006 1.005147432546e+006 1.005085347231e+006 1.005085347244e+006 1.005085347236e+006 1.005085347238e+006 1.005085347238e+006 1.005085347236e+006 1.005085347236e+006 1.005085347236e+006 1.005085347233e+006 1.005042713583e+006 1.005042713575e+006 1.005042713582e+006 1.005042713579e+006 1.005042713579e+006 1.005042713577e+006 1.005042713577e+006 1.005042713583e+006 1.005042713575e+006 1.004985656765e+006 1.004985656761e+006 1.004985656760e+006 1.004985656765e+006 1.004985656763e+006 1.004985656757e+006 1.004985656762e+006 1.004985656758e+006 1.004985656763e+006 1.004924163308e+006 1.004924163304e+006 1.004924163301e+006 1.004924163301e+006 1.004924163304e+006 1.004924163304e+006 1.004924163303e+006 1.004924163303e+006 1.004924163308e+006 1.004879605215e+006 1.004879605215e+006 1.004879605213e+006 1.004879605214e+006 1.004879605212e+006 1.004879605213e+006 1.004879605212e+006 1.004879605209e+006 1.004879605212e+006 1.004807798508e+006 1.004807798504e+006 1.004807798505e+006 1.004807798508e+006 1.004807798505e+006 1.004807798500e+006 1.004807798500e+006 1.004807798501e+006 1.004807798498e+006 1.004753816132e+006 1.004753816138e+006 1.004753816138e+006 1.004753816142e+006 1.004753816142e+006 1.004753816135e+006 1.004753816140e+006 1.004753816138e+006 1.004753816139e+006 1.004695987349e+006 1.004695987347e+006 1.004695987346e+006 1.004695987347e+006 1.004695987350e+006 1.004695987347e+006 1.004695987346e+006 1.004695987342e+006 1.004695987347e+006 1.004621059396e+006 1.004621059391e+006 1.004621059393e+006 1.004621059392e+006 1.004621059392e+006 1.004621059389e+006 1.004621059389e+006 1.004621059389e+006 1.004621059384e+006 1.004569088608e+006 1.004569088610e+006 1.004569088609e+006 1.004569088609e+006 1.004569088612e+006 1.004569088606e+006 1.004569088613e+006 1.004569088605e+006 1.004569088605e+006 1.004496733413e+006 1.004496733415e+006 1.004496733412e+006 1.004496733411e+006 1.004496733415e+006 1.004496733413e+006 1.004496733412e+006 1.004496733413e+006 1.004496733410e+006 1.004427491089e+006 1.004427491091e+006 1.004427491090e+006 1.004427491088e+006 1.004427491092e+006 1.004427491088e+006 1.004427491090e+006 1.004427491089e+006 1.004427491089e+006 1.004366280841e+006 1.004366280845e+006 1.004366280847e+006 1.004366280847e+006 1.004366280847e+006 1.004366280847e+006 1.004366280847e+006 1.004366280846e+006 1.004366280843e+006 1.004290575758e+006 1.004290575753e+006 1.004290575748e+006 1.004290575753e+006 1.004290575752e+006 1.004290575753e+006 1.004290575749e+006 1.004290575750e+006 1.004290575751e+006 1.004218365557e+006 1.004218365554e+006 1.004218365554e+006 1.004218365551e+006 1.004218365554e+006 1.004218365551e+006 1.004218365551e+006 1.004218365551e+006 1.004218365557e+006 1.004155315186e+006 1.004155315186e+006 1.004155315183e+006 1.004155315186e+006 1.004155315182e+006 1.004155315184e+006 1.004155315183e+006 1.004155315182e+006 1.004155315183e+006 1.004072825042e+006 1.004072825044e+006 1.004072825042e+006 1.004072825043e+006 1.004072825043e+006 1.004072825041e+006 1.004072825042e+006 1.004072825042e+006 1.004072825042e+006 1.004002636586e+006 1.004002636587e+006 1.004002636588e+006 1.004002636588e+006 1.004002636591e+006 1.004002636584e+006 1.004002636593e+006 1.004002636586e+006 1.004002636588e+006 1.003928383217e+006 1.003928383221e+006 1.003928383220e+006 1.003928383217e+006 1.003928383222e+006 1.003928383221e+006 1.003928383219e+006 1.003928383225e+006 1.003928383222e+006 1.003847986483e+006 1.003847986489e+006 1.003847986487e+006 1.003847986486e+006 1.003847986487e+006 1.003847986487e+006 1.003847986486e+006 1.003847986486e+006 1.003847986486e+006 1.003778915425e+006 1.003778915428e+006 1.003778915426e+006 1.003778915430e+006 1.003778915426e+006 1.003778915427e+006 1.003778915425e+006 1.003778915424e+006 1.003778915426e+006 1.003697206427e+006 1.003697206427e+006 1.003697206430e+006 1.003697206431e+006 1.003697206426e+006 1.003697206430e+006 1.003697206430e+006 1.003697206427e+006 1.003697206430e+006 1.003610700146e+006 1.003610700147e+006 1.003610700147e+006 1.003610700146e+006 1.003610700149e+006 1.003610700147e+006 1.003610700148e+006 1.003610700145e+006 1.003610700144e+006 1.003545940059e+006 1.003545940062e+006 1.003545940061e+006 1.003545940059e+006 1.003545940061e+006 1.003545940059e+006 1.003545940063e+006 1.003545940061e+006 1.003545940058e+006 1.003456364178e+006 1.003456364181e+006 1.003456364181e+006 1.003456364183e+006 1.003456364181e+006 1.003456364179e+006 1.003456364179e+006 1.003456364179e+006 1.003456364183e+006 1.003378035030e+006 1.003378035028e+006 1.003378035029e+006 1.003378035030e+006 1.003378035028e+006 1.003378035028e+006 1.003378035030e+006 1.003378035028e+006 1.003378035027e+006 1.003299421383e+006 1.003299421380e+006 1.003299421379e+006 1.003299421379e+006 1.003299421375e+006 1.003299421379e+006 1.003299421379e+006 1.003299421379e+006 1.003299421376e+006 1.003212886744e+006 1.003212886746e+006 1.003212886747e+006 1.003212886743e+006 1.003212886739e+006 1.003212886745e+006 1.003212886742e+006 1.003212886742e+006 1.003212886742e+006 1.003132745836e+006 1.003132745840e+006 1.003132745841e+006 1.003132745840e+006 1.003132745841e+006 1.003132745838e+006 1.003132745841e+006 1.003132745839e+006 1.003132745839e+006 1.003053829444e+006 1.003053829442e+006 1.003053829442e+006 1.003053829444e+006 1.003053829443e+006 1.003053829442e+006 1.003053829443e+006 1.003053829444e+006 1.003053829441e+006 1.002966878691e+006 1.002966878693e+006 1.002966878695e+006 1.002966878693e+006 1.002966878694e+006 1.002966878690e+006 1.002966878696e+006 1.002966878694e+006 1.002966878695e+006 1.002881601076e+006 1.002881601077e+006 1.002881601077e+006 1.002881601076e+006 1.002881601076e+006 1.002881601077e+006 1.002881601076e+006 1.002881601078e+006 1.002881601078e+006 1.002800346745e+006 1.002800346746e+006 1.002800346747e+006 1.002800346746e+006 1.002800346746e+006 1.002800346746e+006 1.002800346746e+006 1.002800346747e+006 1.002800346746e+006 1.002729928224e+006 1.002729928226e+006 1.002729928225e+006 1.002729928225e+006 1.002729928228e+006 1.002729928226e+006 1.002729928229e+006 1.002729928227e+006 1.002729928226e+006 1.002616604768e+006 1.002616604767e+006 1.002616604766e+006 1.002616604765e+006 1.002616604763e+006 1.002616604763e+006 1.002616604764e+006 1.002616604764e+006 1.002616604764e+006 1.002550694286e+006 1.002550694287e+006 1.002550694287e+006 1.002550694290e+006 1.002550694294e+006 1.002550694295e+006 1.002550694293e+006 1.002550694295e+006 1.002550694294e+006 1.002476493974e+006 1.002476493977e+006 1.002476493977e+006 1.002476493970e+006 1.002476493967e+006 1.002476493966e+006 1.002476493964e+006 1.002476493966e+006 1.002476493963e+006 1.002387400051e+006 1.002387400053e+006 1.002387400056e+006 1.002387400065e+006 1.002387400071e+006 1.002387400075e+006 1.002387400073e+006 1.002387400077e+006 1.002387400077e+006 1.002256963394e+006 1.002256963390e+006 1.002256963390e+006 1.002256963376e+006 1.002256963371e+006 1.002256963367e+006 1.002256963368e+006 1.002256963365e+006 1.002256963365e+006 1.002279011395e+006 1.002279011396e+006 1.002279011389e+006 1.002279011413e+006 1.002279011417e+006 1.002279011420e+006 1.002279011421e+006 1.002279011423e+006 1.002279011432e+006 1.002059011527e+006 1.002059011522e+006 1.002059011527e+006 1.002059011508e+006 1.002059011508e+006 1.002059011504e+006 1.002059011501e+006 1.002059011502e+006 1.002059011503e+006 1.002107050355e+006 1.002107050360e+006 1.002107050356e+006 1.002107050360e+006 1.002107050368e+006 1.002107050365e+006 1.002107050368e+006 1.002107050368e+006 1.002107050371e+006 1.001935503224e+006 1.001935503224e+006 1.001935503220e+006 1.001935503232e+006 1.001935503226e+006 1.001935503226e+006 1.001935503223e+006 1.001935503228e+006 1.001935503222e+006 1.001880157997e+006 1.001880157998e+006 1.001880157995e+006 1.001880158000e+006 1.001880157996e+006 1.001880157997e+006 1.001880157995e+006 1.001880157994e+006 1.001880157995e+006 1.001811452821e+006 1.001811452824e+006 1.001811452822e+006 1.001811452825e+006 1.001811452823e+006 1.001811452823e+006 1.001811452823e+006 1.001811452822e+006 1.001811452821e+006 1.001714799756e+006 1.001714799754e+006 1.001714799755e+006 1.001714799755e+006 1.001714799755e+006 1.001714799755e+006 1.001714799756e+006 1.001714799754e+006 1.001714799755e+006 1.001642423089e+006 1.001642423089e+006 1.001642423089e+006 1.001642423089e+006 1.001642423089e+006 1.001642423090e+006 1.001642423089e+006 1.001642423089e+006 1.001642423088e+006 1.001556672420e+006 1.001556672419e+006 1.001556672419e+006 1.001556672420e+006 1.001556672419e+006 1.001556672419e+006 1.001556672420e+006 1.001556672418e+006 1.001556672418e+006 1.001474350062e+006 1.001474350063e+006 1.001474350063e+006 1.001474350062e+006 1.001474350063e+006 1.001474350062e+006 1.001474350062e+006 1.001474350062e+006 1.001474350061e+006 1.001417257149e+006 1.001417257149e+006 1.001417257150e+006 1.001417257150e+006 1.001417257149e+006 1.001417257150e+006 1.001417257149e+006 1.001417257150e+006 1.001417257148e+006 1.001319079327e+006 1.001319079327e+006 1.001319079327e+006 1.001319079328e+006 1.001319079328e+006 1.001319079328e+006 1.001319079327e+006 1.001319079326e+006 1.001319079330e+006 1.001252033822e+006 1.001252033823e+006 1.001252033823e+006 1.001252033821e+006 1.001252033821e+006 1.001252033821e+006 1.001252033821e+006 1.001252033821e+006 1.001252033820e+006 1.001187056260e+006 1.001187056258e+006 1.001187056260e+006 1.001187056259e+006 1.001187056260e+006 1.001187056260e+006 1.001187056259e+006 1.001187056261e+006 1.001187056261e+006 1.001099629118e+006 1.001099629118e+006 1.001099629116e+006 1.001099629117e+006 1.001099629117e+006 1.001099629117e+006 1.001099629117e+006 1.001099629118e+006 1.001099629117e+006 1.001047237777e+006 1.001047237777e+006 1.001047237777e+006 1.001047237777e+006 1.001047237778e+006 1.001047237778e+006 1.001047237777e+006 1.001047237778e+006 1.001047237778e+006 1.000980690095e+006 1.000980690096e+006 1.000980690096e+006 1.000980690095e+006 1.000980690095e+006 1.000980690096e+006 1.000980690095e+006 1.000980690095e+006 1.000980690094e+006 1.000929030534e+006 1.000929030534e+006 1.000929030535e+006 1.000929030534e+006 1.000929030534e+006 1.000929030534e+006 1.000929030534e+006 1.000929030533e+006 1.000929030533e+006 1.000880133167e+006 1.000880133167e+006 1.000880133167e+006 1.000880133167e+006 1.000880133167e+006 1.000880133167e+006 1.000880133167e+006 1.000880133166e+006 1.000880133166e+006 1.000831235614e+006 1.000831235614e+006 1.000831235614e+006 1.000831235614e+006 1.000831235614e+006 1.000831235614e+006 1.000831235613e+006 1.000831235613e+006 1.000831235613e+006 1.000782338344e+006 1.000782338345e+006 1.000782338345e+006 1.000782338344e+006 1.000782338344e+006 1.000782338344e+006 1.000782338344e+006 1.000782338344e+006 1.000782338344e+006 1.000733441278e+006 1.000733441278e+006 1.000733441278e+006 1.000733441277e+006 1.000733441277e+006 1.000733441278e+006 1.000733441277e+006 1.000733441277e+006 1.000733441277e+006 1.000684544407e+006 1.000684544407e+006 1.000684544406e+006 1.000684544406e+006 1.000684544406e+006 1.000684544406e+006 1.000684544406e+006 1.000684544406e+006 1.000684544406e+006 1.000635647714e+006 1.000635647714e+006 1.000635647714e+006 1.000635647714e+006 1.000635647714e+006 1.000635647714e+006 1.000635647714e+006 1.000635647714e+006 1.000635647714e+006 1.000586751185e+006 1.000586751185e+006 1.000586751185e+006 1.000586751185e+006 1.000586751185e+006 1.000586751186e+006 1.000586751185e+006 1.000586751185e+006 1.000586751185e+006 1.000537854805e+006 1.000537854805e+006 1.000537854805e+006 1.000537854805e+006 1.000537854805e+006 1.000537854805e+006 1.000537854805e+006 1.000537854805e+006 1.000537854805e+006 1.000488958558e+006 1.000488958558e+006 1.000488958558e+006 1.000488958558e+006 1.000488958558e+006 1.000488958558e+006 1.000488958558e+006 1.000488958558e+006 1.000488958558e+006 1.000440062429e+006 1.000440062429e+006 1.000440062428e+006 1.000440062429e+006 1.000440062429e+006 1.000440062429e+006 1.000440062429e+006 1.000440062429e+006 1.000440062429e+006 1.000391166402e+006 1.000391166402e+006 1.000391166402e+006 1.000391166402e+006 1.000391166402e+006 1.000391166402e+006 1.000391166402e+006 1.000391166402e+006 1.000391166402e+006 1.000342270461e+006 1.000342270461e+006 1.000342270461e+006 1.000342270461e+006 1.000342270461e+006 1.000342270461e+006 1.000342270461e+006 1.000342270461e+006 1.000342270461e+006 1.000293374592e+006 1.000293374592e+006 1.000293374592e+006 1.000293374592e+006 1.000293374592e+006 1.000293374592e+006 1.000293374592e+006 1.000293374592e+006 1.000293374592e+006 1.000244478779e+006 1.000244478779e+006 1.000244478779e+006 1.000244478779e+006 1.000244478779e+006 1.000244478779e+006 1.000244478779e+006 1.000244478779e+006 1.000244478779e+006 1.000195583005e+006 1.000195583005e+006 1.000195583005e+006 1.000195583005e+006 1.000195583005e+006 1.000195583005e+006 1.000195583005e+006 1.000195583006e+006 1.000195583006e+006 1.000146687256e+006 1.000146687256e+006 1.000146687256e+006 1.000146687256e+006 1.000146687256e+006 1.000146687257e+006 1.000146687257e+006 1.000146687257e+006 1.000146687257e+006 1.000097791516e+006 1.000097791516e+006 1.000097791516e+006 1.000097791516e+006 1.000097791516e+006 1.000097791516e+006 1.000097791516e+006 1.000097791516e+006 1.000097791516e+006 1.000048895769e+006 1.000048895769e+006 1.000048895769e+006 1.000048895769e+006 1.000048895769e+006 1.000048895769e+006 1.000048895769e+006 1.000048895769e+006 1.000048895769e+006 1.000000000000e+006 1.000000000000e+006 1.000000000000e+006 1.000000000000e+006 1.000000000000e+006 1.000000000000e+006 1.000000000000e+006 1.000000000000e+006 1.000000000000e+006 
        </DataArray>
        <DataArray type="Float64" Name="MOLAR_FRACTION" format="ascii">