<?xml version="1.0"?>
<VTKFile type="UnstructuredGrid" version="0.1" byte_order="LittleEndian">
  <UnstructuredGrid>
    <Piece NumberOfPoints="909" NumberOfCells="800">
      <Points>
        <DataArray type="Float64" NumberOfComponents="3" format="ascii">
          0.000000000000e+000 0.000000000000e+000 0.000000000000e+000
          2.000000000000e+000 0.000000000000e+000 0.000000000000e+000
          2.000000000000e+000 2.500000000000e+000 0.000000000000e+000
          0.000000000000e+000 2.500000000000e+000 0.000000000000e+000
          2.000000000000e+000 5.000000000000e+000 0.000000000000e+000
          0.000000000000e+000 5.000000000000e+000 0.000000000000e+000
          2.000000000000e+000 7.500000000000e+000 0.000000000000e+000
          0.000000000000e+000 7.500000000000e+000 0.000000000000e+000
          2.000000000000e+000 1.000000000000e+001 0.000000000000e+000
          0.000000000000e+000 1.000000000000e+001 0.000000000000e+000
          2.000000000000e+000 1.250000000000e+001 0.000000000000e+000
          0.000000000000e+000 1.250000000000e+001 0.000000000000e+000
          2.000000000000e+000 1.500000000000e+001 0.000000000000e+000
          0.000000000000e+000 1.500000000000e+001 0.000000000000e+000
          2.000000000000e+000 1.750000000000e+001 0.000000000000e+000
          0.000000000000e+000 1.750000000000e+001 0.000000000000e+000
          2.000000000000e+000 2.000000000000e+001 0.000000000000e+000
          0.000000000000e+000 2.000000000000e+001 0.000000000000e+000
          4.000000000000e+000 0.000000000000e+000 0.000000000000e+000
          4.000000000000e+000 2.500000000000e+000 0.000000000000e+000
          4.000000000000e+000 5.000000000000e+000 0.000000000000e+000
          4.000000000000e+000 7.500000000000e+000 0.000000000000e+000
          4.000000000000e+000 1.000000000000e+001 0.000000000000e+000
          4.000000000000e+000 1.250000000000e+001 0.000000000000e+000
          4.000000000000e+000 1.500000000000e+001 0.000000000000e+000
          4.000000000000e+000 1.750000000000e+001 0.000000000000e+000
          4.000000000000e+000 2.000000000000e+001 0.000000000000e+000
          6.000000000000e+000 0.000000000000e+000 0.000000000000e+000
          6.000000000000e+000 2.500000000000e+000 0.000000000000e+000
          6.000000000000e+000 5.000000000000e+000 0.000000000000e+000
          6.000000000000e+000 7.500000000000e+000 0.000000000000e+000
          6.000000000000e+000 1.000000000000e+001 0.000000000000e+000
          6.000000000000e+000 1.250000000000e+001 0.000000000000e+000
          6.000000000000e+000 1.500000000000e+001 0.000000000000e+000
          6.000000000000e+000 1.750000000000e+001 0.000000000000e+000
          6.000000000000e+000 2.000000000000e+001 0.000000000000e+000
          8.000000000000e+000 0.000000000000e+000 0.000000000000e+000
          8.000000000000e+000 2.500000000000e+000 0.000000000000e+000
          8.000000000000e+000 5.000000000000e+000 0.000000000000e+000
          8.000000000000e+000 7.500000000000e+000 0.000000000000e+000
          8.000000000000e+000 1.000000000000e+001 0.000000000000e+000
          8.000000000000e+000 1.250000000000e+001 0.000000000000e+000
          8.000000000000e+000 1.500000000000e+001 0.000000000000e+000
          8.000000000000e+000 1.750000000000e+001 0.000000000000e+000
          8.000000000000e+000 2.000000000000e+001 0.000000000000e+000
          1.000000000000e+001 0.000000000000e+000 0.000000000000e+000
          1.000000000000e+001 2.500000000000e+000 0.000000000000e+000
          1.000000000000e+001 5.000000000000e+000 0.000000000000e+000
          1.000000000000e+001 7.500000000000e+000 0.000000000000e+000
          1.000000000000e+001 1.000000000000e+001 0.000000000000e+000
          1.000000000000e+001 1.250000000000e+001 0.000000000000e+000
          1.000000000000e+001 1.500000000000e+001 0.000000000000e+000
          1.000000000000e+001 1.750000000000e+001 0.000000000000e+000
          1.000000000000e+001 2.000000000000e+001 0.000000000000e+000
          1.200000000000e+001 0.000000000000e+000 0.000000000000e+000
          1.200000000000e+001 2.500000000000e+000 0.000000000000e+000
          1.200000000000e+001 5.000000000000e+000 0.000000000000e+000
          1.200000000000e+001 7.500000000000e+000 0.000000000000e+000
          1.200000000000e+001 1.000000000000e+001 0.000000000000e+000
          1.200000000000e+001 1.250000000000e+001 0.000000000000e+000
          1.200000000000e+001 1.500000000000e+001 0.000000000000e+000
          1.200000000000e+001 1.750000000000e+001 0.000000000000e+000
          1.200000000000e+001 2.000000000000e+001 0.000000000000e+000
          1.400000000000e+001 0.000000000000e+000 0.000000000000e+000
          1.400000000000e+001 2.500000000000e+000 0.000000000000e+000
          1.400000000000e+001 5.000000000000e+000 0.000000000000e+000
          1.400000000000e+001 7.500000000000e+000 0.000000000000e+000
          1.400000000000e+001 1.000000000000e+001 0.000000000000e+000
          1.400000000000e+001 1.250000000000e+001 0.000000000000e+000
          1.400000000000e+001 1.500000000000e+001 0.000000000000e+000
          1.400000000000e+001 1.750000000000e+001 0.000000000000e+000
          1.400000000000e+001 2.000000000000e+001 0.000000000000e+000
          1.600000000000e+001 0.000000000000e+000 0.000000000000e+000
          1.600000000000e+001 2.500000000000e+000 0.000000000000e+000
          1.600000000000e+001 5.000000000000e+000 0.000000000000e+000
          1.600000000000e+001 7.500000000000e+000 0.000000000000e+000
          1.600000000000e+001 1.000000000000e+001 0.000000000000e+000
          1.600000000000e+001 1.250000000000e+001 0.000000000000e+000
          1.600000000000e+001 1.500000000000e+001 0.000000000000e+000
          1.600000000000e+001 1.750000000000e+001 0.000000000000e+000
          1.600000000000e+001 2.000000000000e+001 0.000000000000e+000
          1.800000000000e+001 0.000000000000e+000 0.000000000000e+000
          1.800000000000e+001 2.500000000000e+000 0.000000000000e+000
          1.800000000000e+001 5.000000000000e+000 0.000000000000e+000
          1.800000000000e+001 7.500000000000e+000 0.000000000000e+000
          1.800000000000e+001 1.000000000000e+001 0.000000000000e+000
          1.800000000000e+001 1.250000000000e+001 0.000000000000e+000
          1.800000000000e+001 1.500000000000e+001 0.000000000000e+000
          1.800000000000e+001 1.750000000000e+001 0.000000000000e+000
          1.800000000000e+001 2.000000000000e+001 0.000000000000e+000
          2.000000000000e+001 0.000000000000e+000 0.000000000000e+000
          2.000000000000e+001 2.500000000000e+000 0.000000000000e+000
          2.000000000000e+001 5.000000000000e+000 0.000000000000e+000
          2.000000000000e+001 7.500000000000e+000 0.000000000000e+000
          2.000000000000e+001 1.000000000000e+001 0.000000000000e+000
          2.000000000000e+001 1.250000000000e+001 0.000000000000e+000
          2.000000000000e+001 1.500000000000e+001 0.000000000000e+000
          2.000000000000e+001 1.750000000000e+001 0.000000000000e+000
          2.000000000000e+001 2.000000000000e+001 0.000000000000e+000
          2.200000000000e+001 0.000000000000e+000 0.000000000000e+000
          2.200000000000e+001 2.500000000000e+000 0.000000000000e+000
          2.200000000000e+001 5.000000000000e+000 0.000000000000e+000
          2.200000000000e+001 7.500000000000e+000 0.000000000000e+000
          2.200000000000e+001 1.000000000000e+001 0.000000000000e+000
          2.200000000000e+001 1.250000000000e+001 0.000000000000e+000
          2.200000000000e+001 1.500000000000e+001 0.000000000000e+000
          2.200000000000e+001 1.750000000000e+001 0.000000000000e+000
          2.200000000000e+001 2.000000000000e+001 0.000000000000e+000
          2.400000000000e+001 0.000000000000e+000 0.000000000000e+000
          2.400000000000e+001 2.500000000000e+000 0.000000000000e+000
          2.400000000000e+001 5.000000000000e+000 0.000000000000e+000
          2.400000000000e+001 7.500000000000e+000 0.000000000000e+000
          2.400000000000e+001 1.000000000000e+001 0.000000000000e+000
          2.400000000000e+001 1.250000000000e+001 0.000000000000e+000
          2.400000000000e+001 1.500000000000e+001 0.000000000000e+000
          2.400000000000e+001 1.750000000000e+001 0.000000000000e+000
          2.400000000000e+001 2.000000000000e+001 0.000000000000e+000
          2.600000000000e+001 0.000000000000e+000 0.000000000000e+000
          2.600000000000e+001 2.500000000000e+000 0.000000000000e+000
          2.600000000000e+001 5.000000000000e+000 0.000000000000e+000
          2.600000000000e+001 7.500000000000e+000 0.000000000000e+000
          2.600000000000e+001 1.000000000000e+001 0.000000000000e+000
          2.600000000000e+001 1.250000000000e+001 0.000000000000e+000
          2.600000000000e+001 1.500000000000e+001 0.000000000000e+000
          2.600000000000e+001 1.750000000000e+001 0.000000000000e+000
          2.600000000000e+001 2.000000000000e+001 0.000000000000e+000
          2.800000000000e+001 0.000000000000e+000 0.000000000000e+000
          2.800000000000e+001 2.500000000000e+000 0.000000000000e+000
          2.800000000000e+001 5.000000000000e+000 0.000000000000e+000
          2.800000000000e+001 7.500000000000e+000 0.000000000000e+000
          2.800000000000e+001 1.000000000000e+001 0.000000000000e+000
          2.800000000000e+001 1.250000000000e+001 0.000000000000e+000
          2.800000000000e+001 1.500000000000e+001 0.000000000000e+000
          2.800000000000e+001 1.750000000000e+001 0.000000000000e+000
          2.800000000000e+001 2.000000000000e+001 0.000000000000e+000
          3.000000000000e+001 0.000000000000e+000 0.000000000000e+000
          3.000000000000e+001 2.500000000000e+000 0.000000000000e+000
          3.000000000000e+001 5.000000000000e+000 0.000000000000e+000
          3.000000000000e+001 7.500000000000e+000 0.000000000000e+000
[...]
      <PointData Scalars="LIQUID_PRESSURE">
        <DataArray type="Float64" Name="LIQUID_PRESSURE" format="ascii">
          1.014290466810e+006 1.014301854414e+006 1.014301854423e+006 1.014290466749e+006 1.014301854445e+006 1.014290466694e+006 1.014301854407e+006 1.014290466760e+006 1.014301854422e+006 1.014290466747e+006 1.014301854461e+006 1.014290466653e+006 1.014301854457e+006 1.014290466665e+006 1.014301854475e+006 1.014290466640e+006 1.014301854497e+006 1.014290466578e+006 1.014295625478e+006 1.014295625503e+006 1.014295625513e+006 1.014295625483e+006 1.014295625485e+006 1.014295625512e+006 1.014295625495e+006 1.014295625510e+006 1.014295625531e+006 1.014257744160e+006 1.014257744174e+006 1.014257744178e+006 1.014257744159e+006 1.014257744162e+006 1.014257744172e+006 1.014257744167e+006 1.014257744161e+006 1.014257744171e+006 1.014265798178e+006 1.014265798185e+006 1.014265798184e+006 1.014265798171e+006 1.014265798166e+006 1.014265798176e+006 1.014265798166e+006 1.014265798164e+006 1.014265798172e+006 1.014226530211e+006 1.014226530218e+006 1.014226530212e+006 1.014226530211e+006 1.014226530204e+006 1.014226530213e+006 1.014226530201e+006 1.014226530204e+006 1.014226530217e+006 1.014185059004e+006 1.014185059003e+006 1.014185059009e+006 1.014185059009e+006 1.014185059008e+006 1.014185059004e+006 1.014185059001e+006 1.014185059007e+006 1.014185059009e+006 1.014174297676e+006 1.014174297671e+006 1.014174297676e+006 1.014174297680e+006 1.014174297673e+006 1.014174297670e+006 1.014174297674e+006 1.014174297673e+006 1.014174297682e+006 1.014105035222e+006 1.014105035216e+006 1.014105035223e+006 1.014105035225e+006 1.014105035214e+006 1.014105035214e+006 1.014105035223e+006 1.014105035226e+006 1.014105035222e+006 1.014073341616e+006 1.014073341612e+006 1.014073341617e+006 1.014073341614e+006 1.014073341607e+006 1.014073341607e+006 1.014073341618e+006 1.014073341618e+006 1.014073341618e+006 1.014019603932e+006 1.014019603943e+006 1.014019603940e+006 1.014019603937e+006 1.014019603935e+006 1.014019603935e+006 1.014019603946e+006 1.014019603947e+006 1.014019603942e+006 1.013950843387e+006 1.013950843395e+006 1.013950843391e+006 1.013950843389e+006 1.013950843386e+006 1.013950843380e+006 1.013950843398e+006 1.013950843398e+006 1.013950843394e+006 1.013903222330e+006 1.013903222324e+006 1.013903222331e+006 1.013903222322e+006 1.013903222321e+006 1.013903222327e+006 1.013903222325e+006 1.013903222330e+006 1.013903222336e+006 1.013816529649e+006 1.013816529640e+006 1.013816529633e+006 1.013816529636e+006 1.013816529635e+006 1.013816529636e+006 1.013816529641e+006 1.013816529641e+006 1.013816529643e+006 1.013758205805e+006 1.013758205801e+006 1.013758205792e+006 1.013758205802e+006 1.013758205797e+006 1.013758205804e+006 1.013758205804e+006 1.013758205808e+006 1.013758205808e+006 1.013669703469e+006 1.013669703471e+006 1.013669703469e+006 1.013669703468e+006 1.013669703472e+006 1.013669703468e+006 1.013669703473e+006 1.013669703473e+006 1.013669703477e+006 1.013586442528e+006 1.013586442527e+006 1.013586442523e+006 1.013586442523e+006 1.013586442532e+006 1.013586442526e+006 1.013586442533e+006 1.013586442532e+006 1.013586442533e+006 1.013506814883e+006 1.013506814894e+006 1.013506814885e+006 1.013506814890e+006 1.013506814898e+006 1.013506814899e+006 1.013506814903e+006 1.013506814896e+006 1.013506814897e+006 1.013394264096e+006 1.013394264095e+006 1.013394264094e+006 1.013394264089e+006 1.013394264096e+006 1.013394264104e+006 1.013394264098e+006 1.013394264101e+006 1.013394264103e+006 1.013315758593e+006 1.013315758584e+006 1.013315758587e+006 1.013315758596e+006 1.013315758591e+006 1.013315758588e+006 1.013315758590e+006 1.013315758593e+006 1.013315758599e+006 1.013197323711e+006 1.013197323711e+006 1.013197323713e+006 1.013197323727e+006 1.013197323717e+006 1.013197323719e+006 1.013197323721e+006 1.013197323717e+006 1.013197323727e+006 1.013095547927e+006 1.013095547938e+006 1.013095547942e+006 1.013095547943e+006 1.013095547943e+006 1.013095547943e+006 1.013095547943e+006 1.013095547943e+006 1.013095547941e+006 1.012981738630e+006 1.012981738632e+006 1.012981738640e+006 1.012981738641e+006 1.012981738644e+006 1.012981738648e+006 1.012981738643e+006 1.012981738643e+006 1.012981738644e+006 1.012860535453e+006 1.012860535448e+006 1.012860535453e+006 1.012860535455e+006 1.012860535460e+006 1.012860535464e+006 1.012860535466e+006 1.012860535462e+006 1.012860535458e+006 1.012747139661e+006 1.012747139663e+006 1.012747139661e+006 1.012747139665e+006 1.012747139667e+006 1.012747139670e+006 1.012747139675e+006 1.012747139671e+006 1.012747139666e+006 1.012608272680e+006 1.012608272689e+006 1.012608272687e+006 1.012608272687e+006 1.012608272688e+006 1.012608272689e+006 1.012608272690e+006 1.012608272690e+006 1.012608272686e+006 1.012488364527e+006 1.012488364528e+006 1.012488364530e+006 1.012488364529e+006 1.012488364528e+006 1.012488364527e+006 1.012488364530e+006 1.012488364536e+006 1.012488364531e+006 1.012349283731e+006 1.012349283726e+006 1.012349283726e+006 1.012349283729e+006 1.012349283727e+006 1.012349283721e+006 1.012349283726e+006 1.012349283730e+006 1.012349283736e+006 1.012204525748e+006 1.012204525743e+006 1.012204525736e+006 1.012204525740e+006 1.012204525741e+006 1.012204525740e+006 1.012204525744e+006 1.012204525747e+006 1.012204525755e+006 1.012074938693e+006 1.012074938693e+006 1.012074938690e+006 1.012074938692e+006 1.012074938693e+006 1.012074938692e+006 1.012074938690e+006 1.012074938692e+006 1.012074938694e+006 1.011913149822e+006 1.011913149822e+006 1.011913149822e+006 1.011913149829e+006 1.011913149824e+006 1.011913149821e+006 1.011913149824e+006 1.011913149821e+006 1.011913149820e+006 1.011769851921e+006 1.011769851923e+006 1.011769851927e+006 1.011769851931e+006 1.011769851930e+006 1.011769851925e+006 1.011769851931e+006 1.011769851929e+006 1.011769851928e+006 1.011618708790e+006 1.011618708785e+006 1.011618708786e+006 1.011618708791e+006 1.011618708792e+006 1.011618708790e+006 1.011618708787e+006 1.011618708779e+006 1.011618708783e+006 1.011447653556e+006 1.011447653551e+006 1.011447653554e+006 1.011447653555e+006 1.011447653555e+006 1.011447653553e+006 1.011447653550e+006 1.011447653547e+006 1.011447653545e+006 1.011300060982e+006 1.011300060982e+006 1.011300060980e+006 1.011300060983e+006 1.011300060986e+006 1.011300060979e+006 1.011300060984e+006 1.011300060978e+006 1.011300060979e+006 1.011127103920e+006 1.011127103915e+006 1.011127103915e+006 1.011127103913e+006 1.011127103917e+006 1.011127103918e+006 1.011127103917e+006 1.011127103918e+006 1.011127103914e+006 1.010956492843e+006 1.010956492844e+006 1.010956492841e+006 1.010956492841e+006 1.010956492843e+006 1.010956492843e+006 1.010956492844e+006 1.010956492843e+006 1.010956492842e+006 1.010792792827e+006 1.010792792833e+006 1.010792792834e+006 1.010792792834e+006 1.010792792832e+006 1.010792792834e+006 1.010792792836e+006 1.010792792831e+006 1.010792792826e+006 1.010610381587e+006 1.010610381583e+006 1.010610381582e+006 1.010610381586e+006 1.010610381586e+006 1.010610381587e+006 1.010610381584e+006 1.010610381580e+006 1.010610381581e+006 1.010431943867e+006 1.010431943862e+006 1.010431943864e+006 1.010431943863e+006 1.010431943866e+006 1.010431943864e+006 1.010431943865e+006 1.010431943859e+006 1.010431943864e+006 1.010261202573e+006 1.010261202575e+006 1.010261202574e+006 1.010261202577e+006 1.010261202575e+006 1.010261202575e+006 1.010261202575e+006 1.010261202573e+006 1.010261202573e+006 1.010066241486e+006 1.010066241489e+006 1.010066241489e+006 1.010066241492e+006 1.010066241490e+006 1.010066241487e+006 1.010066241486e+006 1.010066241487e+006 1.010066241488e+006 1.009884126958e+006 1.009884126958e+006 1.009884126960e+006 1.009884126961e+006 1.009884126961e+006 1.009884126954e+006 1.009884126962e+006 1.009884126957e+006 1.009884126960e+006 1.009696456526e+006 1.009696456531e+006 1.009696456529e+006 1.009696456527e+006 1.009696456528e+006 1.009696456525e+006 1.009696456525e+006 1.009696456533e+006 1.009696456534e+006 1.009501669828e+006 1.009501669834e+006 1.009501669834e+006 1.009501669833e+006 1.009501669830e+006 1.009501669827e+006 1.009501669828e+006 1.009501669830e+006 1.009501669830e+006 1.009317262786e+006 1.009317262790e+006 1.009317262789e+006 1.009317262792e+006 1.009317262786e+006 1.009317262783e+006 1.009317262783e+006 1.009317262785e+006 1.009317262788e+006 1.009114582931e+006 1.009114582932e+006 1.009114582935e+006 1.009114582935e+006 1.009114582930e+006 1.009114582931e+006 1.009114582933e+006 1.009114582933e+006 1.009114582937e+006 1.008908309113e+006 1.008908309116e+006 1.008908309116e+006 1.008908309116e+006 1.008908309118e+006 1.008908309116e+006 1.008908309118e+006 1.008908309118e+006 1.008908309115e+006 1.008726733748e+006 1.008726733751e+006 1.008726733751e+006 1.008726733750e+006 1.008726733753e+006 1.008726733752e+006 1.008726733754e+006 1.008726733753e+006 1.008726733753e+006 1.008514910561e+006 1.008514910564e+006 1.008514910565e+006 1.008514910567e+006 1.008514910568e+006 1.008514910566e+006 1.008514910567e+006 1.008514910567e+006 1.008514910569e+006 1.008314013161e+006 1.008314013158e+006 1.008314013160e+006 1.008314013160e+006 1.008314013159e+006 1.008314013162e+006 1.008314013162e+006 1.008314013162e+006 1.008314013160e+006 1.008111603520e+006 1.008111603517e+006 1.008111603517e+006 1.008111603518e+006 1.008111603513e+006 1.008111603518e+006 1.008111603520e+006 1.008111603518e+006 1.008111603516e+006 1.007899374371e+006 1.007899374375e+006 1.007899374377e+006 1.007899374373e+006 1.007899374371e+006 1.007899374374e+006 1.007899374374e+006 1.007899374372e+006 1.007899374373e+006 1.007695825024e+006 1.007695825030e+006 1.007695825032e+006 1.007695825032e+006 1.007695825032e+006 1.007695825030e+006 1.007695825031e+006 1.007695825030e+006 1.007695825031e+006 1.007492365671e+006 1.007492365671e+006 1.007492365672e+006 1.007492365674e+006 1.007492365673e+006 1.007492365671e+006 1.007492365672e+006 1.007492365674e+006 1.007492365673e+006 1.007277757222e+006 1.007277757226e+006 1.007277757228e+006 1.007277757225e+006 1.007277757226e+006 1.007277757223e+006 1.007277757227e+006 1.007277757227e+006 1.007277757227e+006 1.007065014385e+006 1.007065014388e+006 1.007065014389e+006 1.007065014387e+006 1.007065014388e+006 1.007065014388e+006 1.007065014387e+006 1.007065014389e+006 1.007065014390e+006 1.006860427425e+006 1.006860427428e+006 1.006860427430e+006 1.006860427428e+006 1.006860427428e+006 1.006860427430e+006 1.006860427429e+006 1.006860427429e+006 1.006860427427e+006 1.006660763305e+006 1.006660763307e+006 1.006660763306e+006 1.006660763306e+006 1.006660763308e+006 1.006660763308e+006 1.006660763310e+006 1.006660763306e+006 1.006660763305e+006 1.006411697332e+006 1.006411697331e+006 1.006411697332e+006 1.006411697329e+006 1.006411697328e+006 1.006411697328e+006 1.006411697329e+006 1.006411697328e+006 1.006411697328e+006 1.006225707201e+006 1.006225707203e+006 1.006225707201e+006 1.006225707205e+006 1.006225707208e+006 1.006225707210e+006 1.006225707208e+006 1.006225707211e+006 1.006225707208e+006 1.006031257859e+006 1.006031257860e+006 1.006031257861e+006 1.006031257855e+006 1.006031257851e+006 1.006031257850e+006 1.006031257848e+006 1.006031257849e+006 1.006031257846e+006 1.005802293042e+006 1.005802293044e+006 1.005802293047e+006 1.005802293058e+006 1.005802293063e+006 1.005802293068e+006 1.005802293066e+006 1.005802293071e+006 1.005802293068e+006 1.005540213372e+006 1.005540213370e+006 1.005540213374e+006 1.005540213357e+006 1.005540213353e+006 1.005540213346e+006 1.005540213345e+006 1.005540213343e+006 1.005540213340e+006 1.005451014835e+006 1.005451014837e+006 1.005451014837e+006 1.005451014860e+006 1.005451014869e+006 1.005451014869e+006 1.005451014870e+006 1.005451014870e+006 1.005451014874e+006 1.005085551323e+006 1.005085551319e+006 1.005085551328e+006 1.005085551308e+006 1.005085551305e+006 1.005085551304e+006 1.005085551298e+006 1.005085551294e+006 1.005085551292e+006 1.005027840806e+006 1.005027840810e+006 1.005027840813e+006 1.005027840815e+006 1.005027840818e+006 1.005027840822e+006 1.005027840821e+006 1.005027840816e+006 1.005027840817e+006 1.004715182283e+006 1.004715182288e+006 1.004715182283e+006 1.004715182293e+006 1.004715182290e+006 1.004715182291e+006 1.004715182290e+006 1.004715182291e+006 1.004715182291e+006 1.004532150391e+006 1.004532150392e+006 1.004532150388e+006 1.004532150391e+006 1.004532150387e+006 1.004532150388e+006 1.004532150388e+006 1.004532150387e+006 1.004532150389e+006 1.004347816981e+006 1.004347816983e+006 1.004347816981e+006 1.004347816982e+006 1.004347816979e+006 1.004347816980e+006 1.004347816980e+006 1.004347816981e+006 1.004347816980e+006 1.004128568867e+006 1.004128568865e+006 1.004128568865e+006 1.004128568864e+006 1.004128568863e+006 1.004128568864e+006 1.004128568865e+006 1.004128568864e+006 1.004128568866e+006 1.003932868543e+006 1.003932868543e+006 1.003932868542e+006 1.003932868542e+006 1.003932868542e+006 1.003932868543e+006 1.003932868543e+006 1.003932868543e+006 1.003932868542e+006 1.003722065060e+006 1.003722065058e+006 1.003722065059e+006 1.003722065060e+006 1.003722065058e+006 1.003722065057e+006 1.003722065059e+006 1.003722065057e+006 1.003722065056e+006 1.003520513893e+006 1.003520513893e+006 1.003520513893e+006 1.003520513892e+006 1.003520513892e+006 1.003520513891e+006 1.003520513891e+006 1.003520513890e+006 1.003520513890e+006 1.003352568486e+006 1.003352568485e+006 1.003352568485e+006 1.003352568485e+006 1.003352568484e+006 1.003352568484e+006 1.003352568483e+006 1.003352568484e+006 1.003352568483e+006 1.003139104000e+006 1.003139103998e+006 1.003139103998e+006 1.003139103998e+006 1.003139103998e+006 1.003139103998e+006 1.003139103998e+006 1.003139103996e+006 1.003139104001e+006 1.002959150785e+006 1.002959150785e+006 1.002959150785e+006 1.002959150783e+006 1.002959150783e+006 1.002959150783e+006 1.002959150784e+006 1.002959150783e+006 1.002959150783e+006 1.002787237058e+006 1.002787237056e+006 1.002787237057e+006 1.002787237057e+006 1.002787237058e+006 1.002787237057e+006 1.002787237056e+006 1.002787237058e+006 1.002787237058e+006 1.002593911734e+006 1.002593911735e+006 1.002593911733e+006 1.002593911735e+006 1.002593911735e+006 1.002593911733e+006 1.002593911734e+006 1.002593911734e+006 1.002593911734e+006 1.002445757990e+006 1.002445757991e+006 1.002445757992e+006 1.002445757992e+006 1.002445757992e+006 1.002445757992e+006 1.002445757991e+006 1.002445757991e+006 1.002445757992e+006 1.002296192693e+006 1.002296192694e+006 1.002296192695e+006 1.002296192694e+006 1.002296192694e+006 1.002296192695e+006 1.002296192694e+006 1.002296192694e+006 1.002296192693e+006 1.002181378512e+006 1.002181378512e+006 1.002181378512e+006 1.002181378512e+006 1.002181378512e+006 1.002181378512e+006 1.002181378512e+006 1.002181378511e+006 1.002181378511e+006 1.002066565569e+006 1.002066565569e+006 1.002066565569e+006 1.002066565570e+006 1.002066565570e+006 1.002066565569e+006 1.002066565569e+006 1.002066565569e+006 1.002066565568e+006 1.001951753050e+006 1.001951753050e+006 1.001951753050e+006 1.001951753051e+006 1.001951753051e+006 1.001951753050e+006 1.001951753050e+006 1.001951753050e+006 1.001951753050e+006 1.001836941162e+006 1.001836941162e+006 1.001836941162e+006 1.001836941162e+006 1.001836941162e+006 1.001836941162e+006 1.001836941162e+006 1.001836941161e+006 1.001836941161e+006 1.001722129840e+006 1.001722129840e+006 1.001722129840e+006 1.001722129840e+006 1.001722129840e+006 1.001722129840e+006 1.001722129840e+006 1.001722129839e+006 1.001722129839e+006 1.001607319037e+006 1.001607319037e+006 1.001607319037e+006 1.001607319037e+006 1.001607319037e+006 1.001607319037e+006 1.001607319037e+006 1.001607319037e+006 1.001607319037e+006 1.001492508715e+006 1.001492508715e+006 1.001492508715e+006 1.001492508715e+006 1.001492508715e+006 1.001492508715e+006 1.001492508715e+006 1.001492508715e+006 1.001492508715e+006 1.001377698836e+006 1.001377698836e+006 1.001377698836e+006 1.001377698836e+006 1.001377698836e+006 1.001377698836e+006 1.001377698836e+006 1.001377698836e+006 1.001377698836e+006 1.001262889358e+006 1.001262889358e+006 1.001262889358e+006 1.001262889358e+006 1.001262889358e+006 1.001262889358e+006 1.001262889358e+006 1.001262889358e+006 1.001262889358e+006 1.001148080242e+006 1.001148080242e+006 1.001148080242e+006 1.001148080242e+006 1.001148080242e+006 1.001148080242e+006 1.001148080242e+006 1.001148080242e+006 1.001148080242e+006 1.001033271446e+006 1.001033271446e+006 1.001033271446e+006 1.001033271446e+006 1.001033271446e+006 1.001033271447e+006 1.001033271447e+006 1.001033271446e+006 1.001033271447e+006 1.000918462931e+006 1.000918462932e+006 1.000918462931e+006 1.000918462931e+006 1.000918462932e+006 1.000918462932e+006 1.000918462932e+006 1.000918462932e+006 1.000918462932e+006 1.000803654656e+006 1.000803654656e+006 1.000803654656e+006 1.000803654656e+006 1.000803654656e+006 1.000803654656e+006 1.000803654656e+006 1.000803654656e+006 1.000803654656e+006 1.000688846580e+006 1.000688846580e+006 1.000688846580e+006 1.000688846580e+006 1.000688846580e+006 1.000688846580e+006 1.000688846580e+006 1.000688846580e+006 1.000688846580e+006 1.000574038661e+006 1.000574038661e+006 1.000574038661e+006 1.000574038661e+006 1.000574038661e+006 1.000574038661e+006 1.000574038661e+006 1.000574038661e+006 1.000574038661e+006 1.000459230860e+006 1.000459230860e+006 1.000459230860e+006 1.000459230860e+006 1.000459230860e+006 1.000459230860e+006 1.000459230860e+006 1.000459230860e+006 1.000459230860e+006 1.000344423134e+006 1.000344423134e+006 1.000344423134e+006 1.000344423134e+006 1.000344423134e+006 1.000344423134e+006 1.000344423134e+006 1.000344423134e+006 1.000344423134e+006 1.000229615443e+006 1.000229615443e+006 1.000229615443e+006 1.000229615443e+006 1.000229615443e+006 1.000229615443e+006 1.000229615443e+006 1.000229615443e+006 1.000229615443e+006 1.000114807745e+006 1.000114807745e+006 1.000114807745e+006 1.000114807745e+006 1.000114807745e+006 1.000114807745e+006 1.000114807745e+006 1.000114807745e+006 1.000114807745e+006 1.000000000000e+006 1.000000000000e+006 1.000000000000e+006 1.000000000000e+006 1.000000000000e+006 1.000000000000e+006 1.000000000000e+006 1.000000000000e+006 1.000000000000e+006 
        </DataArray>
        <DataArray type="Float64" Name="MOLAR_FRACTION" format="ascii">