<?xml version="1.0"?>
<VTKFile type="UnstructuredGrid" version="0.1" byte_order="LittleEndian">
  <UnstructuredGrid>
    <Piece NumberOfPoints="909" NumberOfCells="800">
      <Points>
        <DataArray type="Float64" NumberOfComponents="3" format="ascii">
          0.000000000000e+000 0.000000000000e+000 0.000000000000e+000
          2.000000000000e+000 0.000000000000e+000 0.000000000000e+000
          2.000000000000e+000 2.500000000000e+000 0.000000000000e+000
          0.000000000000e+000 2.500000000000e+000 0.000000000000e+000
          2.000000000000e+000 5.000000000000e+000 0.000000000000e+000
          0.000000000000e+000 5.000000000000e+000 0.000000000000e+000
          2.000000000000e+000 7.500000000000e+000 0.000000000000e+000
          0.000000000000e+000 7.500000000000e+000 0.000000000000e+000
          2.000000000000e+000 1.000000000000e+001 0.000000000000e+000
          0.000000000000e+000 1.000000000000e+001 0.000000000000e+000
          2.000000000000e+000 1.250000000000e+001 0.000000000000e+000
          0.000000000000e+000 1.250000000000e+001 0.000000000000e+000
          2.000000000000e+000 1.500000000000e+001 0.000000000000e+000
          0.000000000000e+000 1.500000000000e+001 0.000000000000e+000
          2.000000000000e+000 1.750000000000e+001 0.000000000000e+000
          0.000000000000e+000 1.750000000000e+001 0.000000000000e+000
          2.000000000000e+000 2.000000000000e+001 0.000000000000e+000
          0.000000000000e+000 2.000000000000e+001 0.000000000000e+000
          4.000000000000e+000 0.000000000000e+000 0.000000000000e+000
          4.000000000000e+000 2.500000000000e+000 0.000000000000e+000
          4.000000000000e+000 5.000000000000e+000 0.000000000000e+000
          4.000000000000e+000 7.500000000000e+000 0.000000000000e+000
          4.000000000000e+000 1.000000000000e+001 0.000000000000e+000
          4.000000000000e+000 1.250000000000e+001 0.000000000000e+000
          4.000000000000e+000 1.500000000000e+001 0.000000000000e+000
          4.000000000000e+000 1.750000000000e+001 0.000000000000e+000
          4.000000000000e+000 2.000000000000e+001 0.000000000000e+000
          6.000000000000e+000 0.000000000000e+000 0.000000000000e+000
          6.000000000000e+000 2.500000000000e+000 0.000000000000e+000
          6.000000000000e+000 5.000000000000e+000 0.000000000000e+000
          6.000000000000e+000 7.500000000000e+000 0.000000000000e+000
          6.000000000000e+000 1.000000000000e+001 0.000000000000e+000
          6.000000000000e+000 1.250000000000e+001 0.000000000000e+000
          6.000000000000e+000 1.500000000000e+001 0.000000000000e+000
          6.000000000000e+000 1.750000000000e+001 0.000000000000e+000
          6.000000000000e+000 2.000000000000e+001 0.000000000000e+000
          8.000000000000e+000 0.000000000000e+000 0.000000000000e+000
          8.000000000000e+000 2.500000000000e+000 0.000000000000e+000
          8.000000000000e+000 5.000000000000e+000 0.000000000000e+000
          8.000000000000e+000 7.500000000000e+000 0.000000000000e+000
          8.000000000000e+000 1.000000000000e+001 0.000000000000e+000
          8.000000000000e+000 1.250000000000e+001 0.000000000000e+000
          8.000000000000e+000 1.500000000000e+001 0.000000000000e+000
          8.000000000000e+000 1.750000000000e+001 0.000000000000e+000
          8.000000000000e+000 2.000000000000e+001 0.000000000000e+000
          1.000000000000e+001 0.000000000000e+000 0.000000000000e+000
          1.000000000000e+001 2.500000000000e+000 0.000000000000e+000
          1.000000000000e+001 5.000000000000e+000 0.000000000000e+000
          1.000000000000e+001 7.500000000000e+000 0.000000000000e+000
          1.000000000000e+001 1.000000000000e+001 0.000000000000e+000
          1.000000000000e+001 1.250000000000e+001 0.000000000000e+000
          1.000000000000e+001 1.500000000000e+001 0.000000000000e+000
          1.000000000000e+001 1.750000000000e+001 0.000000000000e+000
          1.000000000000e+001 2.000000000000e+001 0.000000000000e+000
          1.200000000000e+001 0.000000000000e+000 0.000000000000e+000
          1.200000000000e+001 2.500000000000e+000 0.000000000000e+000
          1.200000000000e+001 5.000000000000e+000 0.000000000000e+000
          1.200000000000e+001 7.500000000000e+000 0.000000000000e+000
          1.200000000000e+001 1.000000000000e+001 0.000000000000e+000
          1.200000000000e+001 1.250000000000e+001 0.000000000000e+000
          1.200000000000e+001 1.500000000000e+001 0.000000000000e+000
          1.200000000000e+001 1.750000000000e+001 0.000000000000e+000
          1.200000000000e+001 2.000000000000e+001 0.000000000000e+000
          1.400000000000e+001 0.000000000000e+000 0.000000000000e+000
          1.400000000000e+001 2.500000000000e+000 0.000000000000e+000
          1.400000000000e+001 5.000000000000e+000 0.000000000000e+000
          1.400000000000e+001 7.500000000000e+000 0.000000000000e+000
          1.400000000000e+001 1.000000000000e+001 0.000000000000e+000
          1.400000000000e+001 1.250000000000e+001 0.000000000000e+000
          1.400000000000e+001 1.500000000000e+001 0.000000000000e+000
          1.400000000000e+001 1.750000000000e+001 0.000000000000e+000
          1.400000000000e+001 2.000000000000e+001 0.000000000000e+000
          1.600000000000e+001 0.000000000000e+000 0.000000000000e+000
          1.600000000000e+001 2.500000000000e+000 0.000000000000e+000
          1.600000000000e+001 5.000000000000e+000 0.000000000000e+000
          1.600000000000e+001 7.500000000000e+000 0.000000000000e+000
          1.600000000000e+001 1.000000000000e+001 0.000000000000e+000
          1.600000000000e+001 1.250000000000e+001 0.000000000000e+000
          1.600000000000e+001 1.500000000000e+001 0.000000000000e+000
          1.600000000000e+001 1.750000000000e+001 0.000000000000e+000
          1.600000000000e+001 2.000000000000e+001 0.000000000000e+000
          1.800000000000e+001 0.000000000000e+000 0.000000000000e+000
          1.800000000000e+001 2.500000000000e+000 0.000000000000e+000
          1.800000000000e+001 5.000000000000e+000 0.000000000000e+000
          1.800000000000e+001 7.500000000000e+000 0.000000000000e+000
          1.800000000000e+001 1.000000000000e+001 0.000000000000e+000
          1.800000000000e+001 1.250000000000e+001 0.000000000000e+000
          1.800000000000e+001 1.500000000000e+001 0.000000000000e+000
          1.800000000000e+001 1.750000000000e+001 0.000000000000e+000
          1.800000000000e+001 2.000000000000e+001 0.000000000000e+000
          2.000000000000e+001 0.000000000000e+000 0.000000000000e+000
          2.000000000000e+001 2.500000000000e+000 0.000000000000e+000
          2.000000000000e+001 5.000000000000e+000 0.000000000000e+000
          2.000000000000e+001 7.500000000000e+000 0.000000000000e+000
          2.000000000000e+001 1.000000000000e+001 0.000000000000e+000
          2.000000000000e+001 1.250000000000e+001 0.000000000000e+000
          2.000000000000e+001 1.500000000000e+001 0.000000000000e+000
          2.000000000000e+001 1.750000000000e+001 0.000000000000e+000
          2.000000000000e+001 2.000000000000e+001 0.000000000000e+000
          2.200000000000e+001 0.000000000000e+000 0.000000000000e+000
          2.200000000000e+001 2.500000000000e+000 0.000000000000e+000
          2.200000000000e+001 5.000000000000e+000 0.000000000000e+000
          2.200000000000e+001 7.500000000000e+000 0.000000000000e+000
          2.200000000000e+001 1.000000000000e+001 0.000000000000e+000
          2.200000000000e+001 1.250000000000e+001 0.000000000000e+000
          2.200000000000e+001 1.500000000000e+001 0.000000000000e+000
          2.200000000000e+001 1.750000000000e+001 0.000000000000e+000
          2.200000000000e+001 2.000000000000e+001 0.000000000000e+000
          2.400000000000e+001 0.000000000000e+000 0.000000000000e+000
          2.400000000000e+001 2.500000000000e+000 0.000000000000e+000
          2.400000000000e+001 5.000000000000e+000 0.000000000000e+000
          2.400000000000e+001 7.500000000000e+000 0.000000000000e+000
          2.400000000000e+001 1.000000000000e+001 0.000000000000e+000
          2.400000000000e+001 1.250000000000e+001 0.000000000000e+000
          2.400000000000e+001 1.500000000000e+001 0.000000000000e+000
          2.400000000000e+001 1.750000000000e+001 0.000000000000e+000
          2.400000000000e+001 2.000000000000e+001 0.000000000000e+000
          2.600000000000e+001 0.000000000000e+000 0.000000000000e+000
          2.600000000000e+001 2.500000000000e+000 0.000000000000e+000
          2.600000000000e+001 5.000000000000e+000 0.000000000000e+000
          2.600000000000e+001 7.500000000000e+000 0.000000000000e+000
          2.600000000000e+001 1.000000000000e+001 0.000000000000e+000
          2.600000000000e+001 1.250000000000e+001 0.000000000000e+000
          2.600000000000e+001 1.500000000000e+001 0.000000000000e+000
          2.600000000000e+001 1.750000000000e+001 0.000000000000e+000
          2.600000000000e+001 2.000000000000e+001 0.000000000000e+000
          2.800000000000e+001 0.000000000000e+000 0.000000000000e+000
          2.800000000000e+001 2.500000000000e+000 0.000000000000e+000
          2.800000000000e+001 5.000000000000e+000 0.000000000000e+000
          2.800000000000e+001 7.500000000000e+000 0.000000000000e+000
          2.800000000000e+001 1.000000000000e+001 0.000000000000e+000
          2.800000000000e+001 1.250000000000e+001 0.000000000000e+000
          2.800000000000e+001 1.500000000000e+001 0.000000000000e+000
          2.800000000000e+001 1.750000000000e+001 0.000000000000e+000
          2.800000000000e+001 2.000000000000e+001 0.000000000000e+000
          3.000000000000e+001 0.000000000000e+000 0.000000000000e+000
          3.000000000000e+001 2.500000000000e+000 0.000000000000e+000
          3.000000000000e+001 5.000000000000e+000 0.000000000000e+000
          3.000000000000e+001 7.500000000000e+000 0.000000000000e+000
[...]
      <PointData Scalars="LIQUID_PRESSURE">
        <DataArray type="Float64" Name="LIQUID_PRESSURE" format="ascii">
          1.033768676283e+006 1.033778645467e+006 1.033778645481e+006 1.033768676203e+006 1.033778645507e+006 1.033768676155e+006 1.033778645474e+006 1.033768676238e+006 1.033778645488e+006 1.033768676211e+006 1.033778645526e+006 1.033768676105e+006 1.033778645515e+006 1.033768676102e+006 1.033778645532e+006 1.033768676068e+006 1.033778645558e+006 1.033768676002e+006 1.033760225070e+006 1.033760225100e+006 1.033760225117e+006 1.033760225079e+006 1.033760225084e+006 1.033760225122e+006 1.033760225099e+006 1.033760225113e+006 1.033760225139e+006 1.033703062181e+006 1.033703062200e+006 1.033703062206e+006 1.033703062181e+006 1.033703062189e+006 1.033703062203e+006 1.033703062184e+006 1.033703062186e+006 1.033703062196e+006 1.033688389304e+006 1.033688389313e+006 1.033688389322e+006 1.033688389301e+006 1.033688389302e+006 1.033688389309e+006 1.033688389299e+006 1.033688389291e+006 1.033688389300e+006 1.033613955474e+006 1.033613955481e+006 1.033613955482e+006 1.033613955476e+006 1.033613955469e+006 1.033613955481e+006 1.033613955470e+006 1.033613955468e+006 1.033613955473e+006 1.033532630760e+006 1.033532630764e+006 1.033532630766e+006 1.033532630760e+006 1.033532630760e+006 1.033532630761e+006 1.033532630759e+006 1.033532630757e+006 1.033532630759e+006 1.033476223848e+006 1.033476223847e+006 1.033476223848e+006 1.033476223842e+006 1.033476223847e+006 1.033476223843e+006 1.033476223842e+006 1.033476223839e+006 1.033476223840e+006 1.033350581292e+006 1.033350581292e+006 1.033350581291e+006 1.033350581287e+006 1.033350581287e+006 1.033350581288e+006 1.033350581288e+006 1.033350581286e+006 1.033350581283e+006 1.033259357023e+006 1.033259357021e+006 1.033259357021e+006 1.033259357018e+006 1.033259357019e+006 1.033259357017e+006 1.033259357017e+006 1.033259357014e+006 1.033259357015e+006 1.033136694163e+006 1.033136694167e+006 1.033136694167e+006 1.033136694166e+006 1.033136694165e+006 1.033136694162e+006 1.033136694165e+006 1.033136694163e+006 1.033136694165e+006 1.032991992469e+006 1.032991992473e+006 1.032991992470e+006 1.032991992471e+006 1.032991992468e+006 1.032991992467e+006 1.032991992474e+006 1.032991992471e+006 1.032991992473e+006 1.032862378911e+006 1.032862378910e+006 1.032862378910e+006 1.032862378908e+006 1.032862378907e+006 1.032862378910e+006 1.032862378907e+006 1.032862378908e+006 1.032862378909e+006 1.032685326453e+006 1.032685326451e+006 1.032685326454e+006 1.032685326455e+006 1.032685326453e+006 1.032685326452e+006 1.032685326451e+006 1.032685326451e+006 1.032685326454e+006 1.032532232941e+006 1.032532232946e+006 1.032532232943e+006 1.032532232946e+006 1.032532232944e+006 1.032532232942e+006 1.032532232942e+006 1.032532232946e+006 1.032532232946e+006 1.032340045489e+006 1.032340045488e+006 1.032340045494e+006 1.032340045490e+006 1.032340045491e+006 1.032340045489e+006 1.032340045488e+006 1.032340045491e+006 1.032340045493e+006 1.032148021470e+006 1.032148021469e+006 1.032148021469e+006 1.032148021471e+006 1.032148021469e+006 1.032148021471e+006 1.032148021471e+006 1.032148021473e+006 1.032148021472e+006 1.031951771813e+006 1.031951771817e+006 1.031951771817e+006 1.031951771818e+006 1.031951771817e+006 1.031951771817e+006 1.031951771817e+006 1.031951771821e+006 1.031951771819e+006 1.031715353282e+006 1.031715353285e+006 1.031715353286e+006 1.031715353285e+006 1.031715353286e+006 1.031715353286e+006 1.031715353286e+006 1.031715353286e+006 1.031715353289e+006 1.031509097182e+006 1.031509097180e+006 1.031509097183e+006 1.031509097184e+006 1.031509097183e+006 1.031509097183e+006 1.031509097183e+006 1.031509097184e+006 1.031509097186e+006 1.031253592036e+006 1.031253592033e+006 1.031253592038e+006 1.031253592039e+006 1.031253592038e+006 1.031253592039e+006 1.031253592039e+006 1.031253592038e+006 1.031253592037e+006 1.031010285901e+006 1.031010285902e+006 1.031010285904e+006 1.031010285902e+006 1.031010285903e+006 1.031010285900e+006 1.031010285904e+006 1.031010285904e+006 1.031010285902e+006 1.030748061320e+006 1.030748061319e+006 1.030748061321e+006 1.030748061320e+006 1.030748061318e+006 1.030748061320e+006 1.030748061322e+006 1.030748061320e+006 1.030748061323e+006 1.030472729157e+006 1.030472729157e+006 1.030472729153e+006 1.030472729154e+006 1.030472729151e+006 1.030472729150e+006 1.030472729152e+006 1.030472729153e+006 1.030472729154e+006 1.030198857916e+006 1.030198857915e+006 1.030198857911e+006 1.030198857907e+006 1.030198857907e+006 1.030198857904e+006 1.030198857906e+006 1.030198857907e+006 1.030198857907e+006 1.029892342504e+006 1.029892342501e+006 1.029892342501e+006 1.029892342497e+006 1.029892342494e+006 1.029892342493e+006 1.029892342493e+006 1.029892342494e+006 1.029892342493e+006 1.029601095740e+006 1.029601095739e+006 1.029601095737e+006 1.029601095734e+006 1.029601095731e+006 1.029601095730e+006 1.029601095729e+006 1.029601095730e+006 1.029601095730e+006 1.029282752523e+006 1.029282752522e+006 1.029282752521e+006 1.029282752517e+006 1.029282752515e+006 1.029282752513e+006 1.029282752512e+006 1.029282752513e+006 1.029282752514e+006 1.028954386897e+006 1.028954386897e+006 1.028954386893e+006 1.028954386891e+006 1.028954386889e+006 1.028954386887e+006 1.028954386887e+006 1.028954386886e+006 1.028954386885e+006 1.028636245918e+006 1.028636245916e+006 1.028636245915e+006 1.028636245914e+006 1.028636245911e+006 1.028636245909e+006 1.028636245908e+006 1.028636245907e+006 1.028636245905e+006 1.028277790145e+006 1.028277790146e+006 1.028277790144e+006 1.028277790143e+006 1.028277790140e+006 1.028277790138e+006 1.028277790136e+006 1.028277790135e+006 1.028277790133e+006 1.027935505669e+006 1.027935505668e+006 1.027935505668e+006 1.027935505668e+006 1.027935505665e+006 1.027935505661e+006 1.027935505660e+006 1.027935505658e+006 1.027935505658e+006 1.027578250687e+006 1.027578250685e+006 1.027578250685e+006 1.027578250686e+006 1.027578250683e+006 1.027578250681e+006 1.027578250678e+006 1.027578250678e+006 1.027578250678e+006 1.027195504175e+006 1.027195504174e+006 1.027195504173e+006 1.027195504173e+006 1.027195504172e+006 1.027195504170e+006 1.027195504169e+006 1.027195504169e+006 1.027195504169e+006 1.026833827059e+006 1.026833827058e+006 1.026833827057e+006 1.026833827058e+006 1.026833827057e+006 1.026833827056e+006 1.026833827055e+006 1.026833827055e+006 1.026833827055e+006 1.026438859019e+006 1.026438859016e+006 1.026438859017e+006 1.026438859017e+006 1.026438859018e+006 1.026438859018e+006 1.026438859017e+006 1.026438859016e+006 1.026438859016e+006 1.026042854875e+006 1.026042854874e+006 1.026042854875e+006 1.026042854876e+006 1.026042854877e+006 1.026042854878e+006 1.026042854876e+006 1.026042854876e+006 1.026042854875e+006 1.025649810374e+006 1.025649810375e+006 1.025649810378e+006 1.025649810379e+006 1.025649810381e+006 1.025649810381e+006 1.025649810381e+006 1.025649810380e+006 1.025649810379e+006 1.025231543805e+006 1.025231543805e+006 1.025231543808e+006 1.025231543810e+006 1.025231543811e+006 1.025231543810e+006 1.025231543812e+006 1.025231543810e+006 1.025231543810e+006 1.024815132463e+006 1.024815132463e+006 1.024815132465e+006 1.024815132467e+006 1.024815132467e+006 1.024815132468e+006 1.024815132468e+006 1.024815132466e+006 1.024815132467e+006 1.024402184435e+006 1.024402184437e+006 1.024402184438e+006 1.024402184440e+006 1.024402184441e+006 1.024402184443e+006 1.024402184441e+006 1.024402184441e+006 1.024402184440e+006 1.023957349356e+006 1.023957349357e+006 1.023957349359e+006 1.023957349360e+006 1.023957349360e+006 1.023957349362e+006 1.023957349360e+006 1.023957349360e+006 1.023957349358e+006 1.023524223195e+006 1.023524223195e+006 1.023524223196e+006 1.023524223196e+006 1.023524223198e+006 1.023524223197e+006 1.023524223196e+006 1.023524223194e+006 1.023524223196e+006 1.023082270216e+006 1.023082270218e+006 1.023082270217e+006 1.023082270216e+006 1.023082270218e+006 1.023082270217e+006 1.023082270217e+006 1.023082270215e+006 1.023082270213e+006 1.022629904498e+006 1.022629904498e+006 1.022629904497e+006 1.022629904496e+006 1.022629904496e+006 1.022629904496e+006 1.022629904494e+006 1.022629904494e+006 1.022629904492e+006 1.022183487372e+006 1.022183487371e+006 1.022183487371e+006 1.022183487370e+006 1.022183487368e+006 1.022183487369e+006 1.022183487367e+006 1.022183487366e+006 1.022183487365e+006 1.021711110771e+006 1.021711110771e+006 1.021711110771e+006 1.021711110769e+006 1.021711110768e+006 1.021711110767e+006 1.021711110768e+006 1.021711110767e+006 1.021711110768e+006 1.021235662306e+006 1.021235662307e+006 1.021235662306e+006 1.021235662305e+006 1.021235662304e+006 1.021235662303e+006 1.021235662304e+006 1.021235662305e+006 1.021235662306e+006 1.020787116018e+006 1.020787116017e+006 1.020787116016e+006 1.020787116015e+006 1.020787116014e+006 1.020787116014e+006 1.020787116013e+006 1.020787116015e+006 1.020787116016e+006 1.020300209681e+006 1.020300209683e+006 1.020300209683e+006 1.020300209681e+006 1.020300209681e+006 1.020300209680e+006 1.020300209680e+006 1.020300209680e+006 1.020300209682e+006 1.019820635870e+006 1.019820635871e+006 1.019820635870e+006 1.019820635870e+006 1.019820635868e+006 1.019820635867e+006 1.019820635867e+006 1.019820635867e+006 1.019820635869e+006 1.019336258096e+006 1.019336258095e+006 1.019336258096e+006 1.019336258095e+006 1.019336258094e+006 1.019336258092e+006 1.019336258093e+006 1.019336258093e+006 1.019336258093e+006 1.018839525504e+006 1.018839525504e+006 1.018839525505e+006 1.018839525503e+006 1.018839525502e+006 1.018839525501e+006 1.018839525501e+006 1.018839525502e+006 1.018839525503e+006 1.018354113990e+006 1.018354113991e+006 1.018354113992e+006 1.018354113991e+006 1.018354113990e+006 1.018354113990e+006 1.018354113990e+006 1.018354113989e+006 1.018354113990e+006 1.017865900314e+006 1.017865900314e+006 1.017865900314e+006 1.017865900314e+006 1.017865900313e+006 1.017865900313e+006 1.017865900311e+006 1.017865900312e+006 1.017865900313e+006 1.017362745499e+006 1.017362745500e+006 1.017362745499e+006 1.017362745498e+006 1.017362745498e+006 1.017362745498e+006 1.017362745497e+006 1.017362745497e+006 1.017362745498e+006 1.016858720636e+006 1.016858720637e+006 1.016858720637e+006 1.016858720636e+006 1.016858720635e+006 1.016858720635e+006 1.016858720635e+006 1.016858720635e+006 1.016858720636e+006 1.016366349730e+006 1.016366349731e+006 1.016366349731e+006 1.016366349731e+006 1.016366349730e+006 1.016366349729e+006 1.016366349729e+006 1.016366349729e+006 1.016366349729e+006 1.015868279015e+006 1.015868279015e+006 1.015868279016e+006 1.015868279016e+006 1.015868279015e+006 1.015868279014e+006 1.015868279014e+006 1.015868279014e+006 1.015868279012e+006 1.015318691184e+006 1.015318691184e+006 1.015318691184e+006 1.015318691185e+006 1.015318691182e+006 1.015318691181e+006 1.015318691180e+006 1.015318691180e+006 1.015318691180e+006 1.014849351423e+006 1.014849351423e+006 1.014849351425e+006 1.014849351426e+006 1.014849351426e+006 1.014849351425e+006 1.014849351425e+006 1.014849351425e+006 1.014849351424e+006 1.014369577616e+006 1.014369577616e+006 1.014369577615e+006 1.014369577609e+006 1.014369577606e+006 1.014369577602e+006 1.014369577601e+006 1.014369577600e+006 1.014369577600e+006 1.013831080740e+006 1.013831080741e+006 1.013831080741e+006 1.013831080752e+006 1.013831080757e+006 1.013831080760e+006 1.013831080760e+006 1.013831080760e+006 1.013831080759e+006 1.013265372582e+006 1.013265372580e+006 1.013265372579e+006 1.013265372561e+006 1.013265372555e+006 1.013265372550e+006 1.013265372545e+006 1.013265372544e+006 1.013265372542e+006 1.012900954093e+006 1.012900954093e+006 1.012900954093e+006 1.012900954118e+006 1.012900954125e+006 1.012900954128e+006 1.012900954132e+006 1.012900954132e+006 1.012900954132e+006 1.012224598886e+006 1.012224598883e+006 1.012224598887e+006 1.012224598865e+006 1.012224598859e+006 1.012224598855e+006 1.012224598849e+006 1.012224598848e+006 1.012224598846e+006 1.011893475676e+006 1.011893475679e+006 1.011893475677e+006 1.011893475684e+006 1.011893475682e+006 1.011893475684e+006 1.011893475684e+006 1.011893475682e+006 1.011893475683e+006 1.011271201450e+006 1.011271201454e+006 1.011271201447e+006 1.011271201458e+006 1.011271201455e+006 1.011271201457e+006 1.011271201455e+006 1.011271201454e+006 1.011271201454e+006 1.010789612852e+006 1.010789612853e+006 1.010789612848e+006 1.010789612851e+006 1.010789612846e+006 1.010789612845e+006 1.010789612846e+006 1.010789612844e+006 1.010789612846e+006 1.010328343592e+006 1.010328343592e+006 1.010328343589e+006 1.010328343591e+006 1.010328343587e+006 1.010328343586e+006 1.010328343586e+006 1.010328343586e+006 1.010328343586e+006 1.009826405769e+006 1.009826405768e+006 1.009826405768e+006 1.009826405768e+006 1.009826405766e+006 1.009826405764e+006 1.009826405765e+006 1.009826405765e+006 1.009826405765e+006 1.009344863201e+006 1.009344863201e+006 1.009344863201e+006 1.009344863201e+006 1.009344863201e+006 1.009344863200e+006 1.009344863201e+006 1.009344863200e+006 1.009344863200e+006 1.008845686915e+006 1.008845686915e+006 1.008845686914e+006 1.008845686915e+006 1.008845686914e+006 1.008845686914e+006 1.008845686914e+006 1.008845686914e+006 1.008845686914e+006 1.008361854485e+006 1.008361854485e+006 1.008361854485e+006 1.008361854486e+006 1.008361854485e+006 1.008361854484e+006 1.008361854484e+006 1.008361854484e+006 1.008361854484e+006 1.007929860726e+006 1.007929860726e+006 1.007929860727e+006 1.007929860727e+006 1.007929860726e+006 1.007929860726e+006 1.007929860726e+006 1.007929860726e+006 1.007929860725e+006 1.007450391402e+006 1.007450391402e+006 1.007450391401e+006 1.007450391402e+006 1.007450391402e+006 1.007450391401e+006 1.007450391400e+006 1.007450391400e+006 1.007450391402e+006 1.007010565704e+006 1.007010565705e+006 1.007010565705e+006 1.007010565704e+006 1.007010565704e+006 1.007010565704e+006 1.007010565704e+006 1.007010565703e+006 1.007010565703e+006 1.006590144630e+006 1.006590144629e+006 1.006590144629e+006 1.006590144630e+006 1.006590144629e+006 1.006590144629e+006 1.006590144628e+006 1.006590144629e+006 1.006590144629e+006 1.006153700083e+006 1.006153700083e+006 1.006153700083e+006 1.006153700083e+006 1.006153700083e+006 1.006153700082e+006 1.006153700082e+006 1.006153700082e+006 1.006153700082e+006 1.005792601228e+006 1.005792601227e+006 1.005792601228e+006 1.005792601228e+006 1.005792601228e+006 1.005792601227e+006 1.005792601227e+006 1.005792601226e+006 1.005792601226e+006 1.005482177100e+006 1.005482177100e+006 1.005482177101e+006 1.005482177101e+006 1.005482177101e+006 1.005482177101e+006 1.005482177100e+006 1.005482177100e+006 1.005482177100e+006 1.005208054787e+006 1.005208054787e+006 1.005208054788e+006 1.005208054787e+006 1.005208054788e+006 1.005208054787e+006 1.005208054787e+006 1.005208054787e+006 1.005208054787e+006 1.004933934907e+006 1.004933934907e+006 1.004933934907e+006 1.004933934907e+006 1.004933934907e+006 1.004933934907e+006 1.004933934907e+006 1.004933934906e+006 1.004933934906e+006 1.004659817084e+006 1.004659817084e+006 1.004659817084e+006 1.004659817084e+006 1.004659817084e+006 1.004659817084e+006 1.004659817083e+006 1.004659817083e+006 1.004659817083e+006 1.004385701122e+006 1.004385701122e+006 1.004385701122e+006 1.004385701122e+006 1.004385701122e+006 1.004385701122e+006 1.004385701122e+006 1.004385701122e+006 1.004385701121e+006 1.004111586875e+006 1.004111586875e+006 1.004111586875e+006 1.004111586875e+006 1.004111586875e+006 1.004111586875e+006 1.004111586875e+006 1.004111586874e+006 1.004111586874e+006 1.003837474234e+006 1.003837474234e+006 1.003837474234e+006 1.003837474233e+006 1.003837474233e+006 1.003837474233e+006 1.003837474233e+006 1.003837474233e+006 1.003837474233e+006 1.003563363089e+006 1.003563363089e+006 1.003563363089e+006 1.003563363089e+006 1.003563363089e+006 1.003563363089e+006 1.003563363089e+006 1.003563363089e+006 1.003563363089e+006 1.003289253327e+006 1.003289253327e+006 1.003289253327e+006 1.003289253327e+006 1.003289253327e+006 1.003289253327e+006 1.003289253327e+006 1.003289253326e+006 1.003289253327e+006 1.003015144827e+006 1.003015144828e+006 1.003015144828e+006 1.003015144828e+006 1.003015144828e+006 1.003015144827e+006 1.003015144827e+006 1.003015144827e+006 1.003015144827e+006 1.002741037471e+006 1.002741037471e+006 1.002741037471e+006 1.002741037471e+006 1.002741037471e+006 1.002741037471e+006 1.002741037471e+006 1.002741037471e+006 1.002741037471e+006 1.002466931137e+006 1.002466931137e+006 1.002466931137e+006 1.002466931137e+006 1.002466931137e+006 1.002466931137e+006 1.002466931137e+006 1.002466931136e+006 1.002466931137e+006 1.002192825704e+006 1.002192825704e+006 1.002192825704e+006 1.002192825704e+006 1.002192825704e+006 1.002192825704e+006 1.002192825704e+006 1.002192825704e+006 1.002192825704e+006 1.001918721051e+006 1.001918721051e+006 1.001918721051e+006 1.001918721051e+006 1.001918721051e+006 1.001918721051e+006 1.001918721051e+006 1.001918721051e+006 1.001918721051e+006 1.001644617056e+006 1.001644617056e+006 1.001644617056e+006 1.001644617056e+006 1.001644617056e+006 1.001644617056e+006 1.001644617056e+006 1.001644617056e+006 1.001644617056e+006 1.001370513596e+006 1.001370513596e+006 1.001370513596e+006 1.001370513596e+006 1.001370513596e+006 1.001370513596e+006 1.001370513596e+006 1.001370513596e+006 1.001370513596e+006 1.001096410548e+006 1.001096410548e+006 1.001096410548e+006 1.001096410548e+006 1.001096410548e+006 1.001096410548e+006 1.001096410548e+006 1.001096410548e+006 1.001096410548e+006 1.000822307788e+006 1.000822307788e+006 1.000822307788e+006 1.000822307788e+006 1.000822307788e+006 1.000822307788e+006 1.000822307788e+006 1.000822307788e+006 1.000822307788e+006 1.000548205193e+006 1.000548205193e+006 1.000548205193e+006 1.000548205193e+006 1.000548205193e+006 1.000548205193e+006 1.000548205193e+006 1.000548205193e+006 1.000548205193e+006 1.000274102638e+006 1.000274102638e+006 1.000274102638e+006 1.000274102638e+006 1.000274102638e+006 1.000274102638e+006 1.000274102638e+006 1.000274102638e+006 1.000274102638e+006 1.000000000000e+006 1.000000000000e+006 1.000000000000e+006 1.000000000000e+006 1.000000000000e+006 1.000000000000e+006 1.000000000000e+006 1.000000000000e+006 1.000000000000e+006 
        </DataArray>
        <DataArray type="Float64" Name="MOLAR_FRACTION" format="ascii">