<?xml version="1.0"?>
<VTKFile type="UnstructuredGrid" version="0.1" byte_order="LittleEndian">
  <UnstructuredGrid>
    <Piece NumberOfPoints="909" NumberOfCells="800">
      <Points>
        <DataArray type="Float64" NumberOfComponents="3" format="ascii">
          0.000000000000e+000 0.000000000000e+000 0.000000000000e+000
          2.000000000000e+000 0.000000000000e+000 0.000000000000e+000
          2.000000000000e+000 2.500000000000e+000 0.000000000000e+000
          0.000000000000e+000 2.500000000000e+000 0.000000000000e+000
          2.000000000000e+000 5.000000000000e+000 0.000000000000e+000
          0.000000000000e+000 5.000000000000e+000 0.000000000000e+000
          2.000000000000e+000 7.500000000000e+000 0.000000000000e+000
          0.000000000000e+000 7.500000000000e+000 0.000000000000e+000
          2.000000000000e+000 1.000000000000e+001 0.000000000000e+000
          0.000000000000e+000 1.000000000000e+001 0.000000000000e+000
          2.000000000000e+000 1.250000000000e+001 0.000000000000e+000
          0.000000000000e+000 1.250000000000e+001 0.000000000000e+000
          2.000000000000e+000 1.500000000000e+001 0.000000000000e+000
          0.000000000000e+000 1.500000000000e+001 0.000000000000e+000
          2.000000000000e+000 1.750000000000e+001 0.000000000000e+000
          0.000000000000e+000 1.750000000000e+001 0.000000000000e+000
          2.000000000000e+000 2.000000000000e+001 0.000000000000e+000
          0.000000000000e+000 2.000000000000e+001 0.000000000000e+000
          4.000000000000e+000 0.000000000000e+000 0.000000000000e+000
          4.000000000000e+000 2.500000000000e+000 0.000000000000e+000
          4.000000000000e+000 5.000000000000e+000 0.000000000000e+000
          4.000000000000e+000 7.500000000000e+000 0.000000000000e+000
          4.000000000000e+000 1.000000000000e+001 0.000000000000e+000
          4.000000000000e+000 1.250000000000e+001 0.000000000000e+000
          4.000000000000e+000 1.500000000000e+001 0.000000000000e+000
          4.000000000000e+000 1.750000000000e+001 0.000000000000e+000
          4.000000000000e+000 2.000000000000e+001 0.000000000000e+000
          6.000000000000e+000 0.000000000000e+000 0.000000000000e+000
          6.000000000000e+000 2.500000000000e+000 0.000000000000e+000
          6.000000000000e+000 5.000000000000e+000 0.000000000000e+000
          6.000000000000e+000 7.500000000000e+000 0.000000000000e+000
          6.000000000000e+000 1.000000000000e+001 0.000000000000e+000
          6.000000000000e+000 1.250000000000e+001 0.000000000000e+000
          6.000000000000e+000 1.500000000000e+001 0.000000000000e+000
          6.000000000000e+000 1.750000000000e+001 0.000000000000e+000
          6.000000000000e+000 2.000000000000e+001 0.000000000000e+000
          8.000000000000e+000 0.000000000000e+000 0.000000000000e+000
          8.000000000000e+000 2.500000000000e+000 0.000000000000e+000
          8.000000000000e+000 5.000000000000e+000 0.000000000000e+000
          8.000000000000e+000 7.500000000000e+000 0.000000000000e+000
          8.000000000000e+000 1.000000000000e+001 0.000000000000e+000
          8.000000000000e+000 1.250000000000e+001 0.000000000000e+000
          8.000000000000e+000 1.500000000000e+001 0.000000000000e+000
          8.000000000000e+000 1.750000000000e+001 0.000000000000e+000
          8.000000000000e+000 2.000000000000e+001 0.000000000000e+000
          1.000000000000e+001 0.000000000000e+000 0.000000000000e+000
          1.000000000000e+001 2.500000000000e+000 0.000000000000e+000
          1.000000000000e+001 5.000000000000e+000 0.000000000000e+000
          1.000000000000e+001 7.500000000000e+000 0.000000000000e+000
          1.000000000000e+001 1.000000000000e+001 0.000000000000e+000
          1.000000000000e+001 1.250000000000e+001 0.000000000000e+000
          1.000000000000e+001 1.500000000000e+001 0.000000000000e+000
          1.000000000000e+001 1.750000000000e+001 0.000000000000e+000
          1.000000000000e+001 2.000000000000e+001 0.000000000000e+000
          1.200000000000e+001 0.000000000000e+000 0.000000000000e+000
          1.200000000000e+001 2.500000000000e+000 0.000000000000e+000
          1.200000000000e+001 5.000000000000e+000 0.000000000000e+000
          1.200000000000e+001 7.500000000000e+000 0.000000000000e+000
          1.200000000000e+001 1.000000000000e+001 0.000000000000e+000
          1.200000000000e+001 1.250000000000e+001 0.000000000000e+000
          1.200000000000e+001 1.500000000000e+001 0.000000000000e+000
          1.200000000000e+001 1.750000000000e+001 0.000000000000e+000
          1.200000000000e+001 2.000000000000e+001 0.000000000000e+000
          1.400000000000e+001 0.000000000000e+000 0.000000000000e+000
          1.400000000000e+001 2.500000000000e+000 0.000000000000e+000
          1.400000000000e+001 5.000000000000e+000 0.000000000000e+000
          1.400000000000e+001 7.500000000000e+000 0.000000000000e+000
          1.400000000000e+001 1.000000000000e+001 0.000000000000e+000
          1.400000000000e+001 1.250000000000e+001 0.000000000000e+000
          1.400000000000e+001 1.500000000000e+001 0.000000000000e+000
          1.400000000000e+001 1.750000000000e+001 0.000000000000e+000
          1.400000000000e+001 2.000000000000e+001 0.000000000000e+000
          1.600000000000e+001 0.000000000000e+000 0.000000000000e+000
          1.600000000000e+001 2.500000000000e+000 0.000000000000e+000
          1.600000000000e+001 5.000000000000e+000 0.000000000000e+000
          1.600000000000e+001 7.500000000000e+000 0.000000000000e+000
          1.600000000000e+001 1.000000000000e+001 0.000000000000e+000
          1.600000000000e+001 1.250000000000e+001 0.000000000000e+000
          1.600000000000e+001 1.500000000000e+001 0.000000000000e+000
          1.600000000000e+001 1.750000000000e+001 0.000000000000e+000
          1.600000000000e+001 2.000000000000e+001 0.000000000000e+000
          1.800000000000e+001 0.000000000000e+000 0.000000000000e+000
          1.800000000000e+001 2.500000000000e+000 0.000000000000e+000
          1.800000000000e+001 5.000000000000e+000 0.000000000000e+000
          1.800000000000e+001 7.500000000000e+000 0.000000000000e+000
          1.800000000000e+001 1.000000000000e+001 0.000000000000e+000
          1.800000000000e+001 1.250000000000e+001 0.000000000000e+000
          1.800000000000e+001 1.500000000000e+001 0.000000000000e+000
          1.800000000000e+001 1.750000000000e+001 0.000000000000e+000
          1.800000000000e+001 2.000000000000e+001 0.000000000000e+000
          2.000000000000e+001 0.000000000000e+000 0.000000000000e+000
          2.000000000000e+001 2.500000000000e+000 0.000000000000e+000
          2.000000000000e+001 5.000000000000e+000 0.000000000000e+000
          2.000000000000e+001 7.500000000000e+000 0.000000000000e+000
          2.000000000000e+001 1.000000000000e+001 0.000000000000e+000
          2.000000000000e+001 1.250000000000e+001 0.000000000000e+000
          2.000000000000e+001 1.500000000000e+001 0.000000000000e+000
          2.000000000000e+001 1.750000000000e+001 0.000000000000e+000
          2.000000000000e+001 2.000000000000e+001 0.000000000000e+000
          2.200000000000e+001 0.000000000000e+000 0.000000000000e+000
          2.200000000000e+001 2.500000000000e+000 0.000000000000e+000
          2.200000000000e+001 5.000000000000e+000 0.000000000000e+000
          2.200000000000e+001 7.500000000000e+000 0.000000000000e+000
          2.200000000000e+001 1.000000000000e+001 0.000000000000e+000
          2.200000000000e+001 1.250000000000e+001 0.000000000000e+000
          2.200000000000e+001 1.500000000000e+001 0.000000000000e+000
          2.200000000000e+001 1.750000000000e+001 0.000000000000e+000
          2.200000000000e+001 2.000000000000e+001 0.000000000000e+000
          2.400000000000e+001 0.000000000000e+000 0.000000000000e+000
          2.400000000000e+001 2.500000000000e+000 0.000000000000e+000
          2.400000000000e+001 5.000000000000e+000 0.000000000000e+000
          2.400000000000e+001 7.500000000000e+000 0.000000000000e+000
          2.400000000000e+001 1.000000000000e+001 0.000000000000e+000
          2.400000000000e+001 1.250000000000e+001 0.000000000000e+000
          2.400000000000e+001 1.500000000000e+001 0.000000000000e+000
          2.400000000000e+001 1.750000000000e+001 0.000000000000e+000
          2.400000000000e+001 2.000000000000e+001 0.000000000000e+000
          2.600000000000e+001 0.000000000000e+000 0.000000000000e+000
          2.600000000000e+001 2.500000000000e+000 0.000000000000e+000
          2.600000000000e+001 5.000000000000e+000 0.000000000000e+000
          2.600000000000e+001 7.500000000000e+000 0.000000000000e+000
          2.600000000000e+001 1.000000000000e+001 0.000000000000e+000
          2.600000000000e+001 1.250000000000e+001 0.000000000000e+000
          2.600000000000e+001 1.500000000000e+001 0.000000000000e+000
          2.600000000000e+001 1.750000000000e+001 0.000000000000e+000
          2.600000000000e+001 2.000000000000e+001 0.000000000000e+000
          2.800000000000e+001 0.000000000000e+000 0.000000000000e+000
          2.800000000000e+001 2.500000000000e+000 0.000000000000e+000
          2.800000000000e+001 5.000000000000e+000 0.000000000000e+000
          2.800000000000e+001 7.500000000000e+000 0.000000000000e+000
          2.800000000000e+001 1.000000000000e+001 0.000000000000e+000
          2.800000000000e+001 1.250000000000e+001 0.000000000000e+000
          2.800000000000e+001 1.500000000000e+001 0.000000000000e+000
          2.800000000000e+001 1.750000000000e+001 0.000000000000e+000
          2.800000000000e+001 2.000000000000e+001 0.000000000000e+000
          3.000000000000e+001 0.000000000000e+000 0.000000000000e+000
          3.000000000000e+001 2.500000000000e+000 0.000000000000e+000
          3.000000000000e+001 5.000000000000e+000 0.000000000000e+000
          3.000000000000e+001 7.500000000000e+000 0.000000000000e+000
[...]
      <PointData Scalars="LIQUID_PRESSURE">
        <DataArray type="Float64" Name="LIQUID_PRESSURE" format="ascii">
          1.015687095323e+006 1.015698441276e+006 1.015698441285e+006 1.015687095257e+006 1.015698441307e+006 1.015687095204e+006 1.015698441270e+006 1.015687095272e+006 1.015698441287e+006 1.015687095261e+006 1.015698441326e+006 1.015687095165e+006 1.015698441320e+006 1.015687095175e+006 1.015698441336e+006 1.015687095148e+006 1.015698441357e+006 1.015687095082e+006 1.015691252945e+006 1.015691252972e+006 1.015691252984e+006 1.015691252954e+006 1.015691252957e+006 1.015691252984e+006 1.015691252965e+006 1.015691252979e+006 1.015691252999e+006 1.015651941060e+006 1.015651941075e+006 1.015651941081e+006 1.015651941063e+006 1.015651941066e+006 1.015651941075e+006 1.015651941069e+006 1.015651941063e+006 1.015651941073e+006 1.015658341926e+006 1.015658341936e+006 1.015658341936e+006 1.015658341922e+006 1.015658341917e+006 1.015658341925e+006 1.015658341918e+006 1.015658341914e+006 1.015658341923e+006 1.015616400847e+006 1.015616400854e+006 1.015616400848e+006 1.015616400846e+006 1.015616400838e+006 1.015616400848e+006 1.015616400837e+006 1.015616400840e+006 1.015616400853e+006 1.015571986030e+006 1.015571986030e+006 1.015571986036e+006 1.015571986034e+006 1.015571986033e+006 1.015571986028e+006 1.015571986028e+006 1.015571986034e+006 1.015571986037e+006 1.015557812068e+006 1.015557812060e+006 1.015557812064e+006 1.015557812067e+006 1.015557812062e+006 1.015557812060e+006 1.015557812063e+006 1.015557812064e+006 1.015557812072e+006 1.015484334873e+006 1.015484334865e+006 1.015484334870e+006 1.015484334872e+006 1.015484334864e+006 1.015484334864e+006 1.015484334874e+006 1.015484334877e+006 1.015484334874e+006 1.015448217944e+006 1.015448217940e+006 1.015448217943e+006 1.015448217941e+006 1.015448217936e+006 1.015448217937e+006 1.015448217947e+006 1.015448217946e+006 1.015448217949e+006 1.015389334407e+006 1.015389334416e+006 1.015389334415e+006 1.015389334413e+006 1.015389334411e+006 1.015389334411e+006 1.015389334422e+006 1.015389334423e+006 1.015389334419e+006 1.015314936027e+006 1.015314936036e+006 1.015314936034e+006 1.015314936033e+006 1.015314936030e+006 1.015314936024e+006 1.015314936042e+006 1.015314936044e+006 1.015314936040e+006 1.015261184073e+006 1.015261184068e+006 1.015261184076e+006 1.015261184069e+006 1.015261184067e+006 1.015261184073e+006 1.015261184071e+006 1.015261184076e+006 1.015261184082e+006 1.015167780200e+006 1.015167780190e+006 1.015167780187e+006 1.015167780190e+006 1.015167780188e+006 1.015167780188e+006 1.015167780192e+006 1.015167780193e+006 1.015167780195e+006 1.015102396268e+006 1.015102396266e+006 1.015102396257e+006 1.015102396267e+006 1.015102396262e+006 1.015102396268e+006 1.015102396268e+006 1.015102396270e+006 1.015102396270e+006 1.015006170118e+006 1.015006170119e+006 1.015006170118e+006 1.015006170116e+006 1.015006170120e+006 1.015006170117e+006 1.015006170121e+006 1.015006170120e+006 1.015006170123e+006 1.014914850043e+006 1.014914850041e+006 1.014914850037e+006 1.014914850038e+006 1.014914850044e+006 1.014914850039e+006 1.014914850046e+006 1.014914850045e+006 1.014914850046e+006 1.014826520012e+006 1.014826520022e+006 1.014826520013e+006 1.014826520018e+006 1.014826520025e+006 1.014826520025e+006 1.014826520028e+006 1.014826520020e+006 1.014826520021e+006 1.014704785762e+006 1.014704785760e+006 1.014704785759e+006 1.014704785754e+006 1.014704785761e+006 1.014704785765e+006 1.014704785760e+006 1.014704785760e+006 1.014704785762e+006 1.014616797712e+006 1.014616797703e+006 1.014616797704e+006 1.014616797712e+006 1.014616797705e+006 1.014616797701e+006 1.014616797702e+006 1.014616797705e+006 1.014616797709e+006 1.014488190950e+006 1.014488190948e+006 1.014488190949e+006 1.014488190960e+006 1.014488190949e+006 1.014488190952e+006 1.014488190953e+006 1.014488190948e+006 1.014488190956e+006 1.014375910702e+006 1.014375910711e+006 1.014375910715e+006 1.014375910713e+006 1.014375910713e+006 1.014375910711e+006 1.014375910711e+006 1.014375910711e+006 1.014375910708e+006 1.014251092101e+006 1.014251092104e+006 1.014251092111e+006 1.014251092112e+006 1.014251092112e+006 1.014251092116e+006 1.014251092111e+006 1.014251092110e+006 1.014251092110e+006 1.014118495695e+006 1.014118495692e+006 1.014118495696e+006 1.014118495697e+006 1.014118495702e+006 1.014118495705e+006 1.014118495706e+006 1.014118495702e+006 1.014118495697e+006 1.013993199705e+006 1.013993199709e+006 1.013993199707e+006 1.013993199710e+006 1.013993199711e+006 1.013993199713e+006 1.013993199718e+006 1.013993199716e+006 1.013993199712e+006 1.013841937771e+006 1.013841937779e+006 1.013841937779e+006 1.013841937779e+006 1.013841937779e+006 1.013841937780e+006 1.013841937781e+006 1.013841937782e+006 1.013841937778e+006 1.013709379096e+006 1.013709379098e+006 1.013709379101e+006 1.013709379100e+006 1.013709379098e+006 1.013709379100e+006 1.013709379103e+006 1.013709379109e+006 1.013709379104e+006 1.013557030269e+006 1.013557030266e+006 1.013557030266e+006 1.013557030267e+006 1.013557030267e+006 1.013557030262e+006 1.013557030270e+006 1.013557030275e+006 1.013557030281e+006 1.013398746525e+006 1.013398746519e+006 1.013398746512e+006 1.013398746517e+006 1.013398746518e+006 1.013398746518e+006 1.013398746524e+006 1.013398746528e+006 1.013398746538e+006 1.013255245626e+006 1.013255245626e+006 1.013255245622e+006 1.013255245626e+006 1.013255245628e+006 1.013255245628e+006 1.013255245627e+006 1.013255245630e+006 1.013255245634e+006 1.013078946244e+006 1.013078946244e+006 1.013078946246e+006 1.013078946253e+006 1.013078946250e+006 1.013078946248e+006 1.013078946251e+006 1.013078946249e+006 1.013078946249e+006 1.012921028505e+006 1.012921028508e+006 1.012921028511e+006 1.012921028516e+006 1.012921028518e+006 1.012921028514e+006 1.012921028519e+006 1.012921028517e+006 1.012921028517e+006 1.012754699099e+006 1.012754699093e+006 1.012754699095e+006 1.012754699099e+006 1.012754699102e+006 1.012754699101e+006 1.012754699099e+006 1.012754699092e+006 1.012754699094e+006 1.012568086862e+006 1.012568086857e+006 1.012568086859e+006 1.012568086861e+006 1.012568086862e+006 1.012568086861e+006 1.012568086858e+006 1.012568086856e+006 1.012568086854e+006 1.012404799223e+006 1.012404799223e+006 1.012404799221e+006 1.012404799225e+006 1.012404799228e+006 1.012404799223e+006 1.012404799226e+006 1.012404799221e+006 1.012404799223e+006 1.012215529879e+006 1.012215529873e+006 1.012215529872e+006 1.012215529871e+006 1.012215529875e+006 1.012215529877e+006 1.012215529876e+006 1.012215529875e+006 1.012215529871e+006 1.012028411862e+006 1.012028411863e+006 1.012028411860e+006 1.012028411860e+006 1.012028411863e+006 1.012028411862e+006 1.012028411863e+006 1.012028411860e+006 1.012028411859e+006 1.011847927990e+006 1.011847927997e+006 1.011847927998e+006 1.011847927998e+006 1.011847927996e+006 1.011847927997e+006 1.011847927998e+006 1.011847927992e+006 1.011847927989e+006 1.011648222630e+006 1.011648222626e+006 1.011648222626e+006 1.011648222629e+006 1.011648222630e+006 1.011648222628e+006 1.011648222625e+006 1.011648222622e+006 1.011648222622e+006 1.011452433342e+006 1.011452433337e+006 1.011452433339e+006 1.011452433338e+006 1.011452433340e+006 1.011452433336e+006 1.011452433338e+006 1.011452433331e+006 1.011452433336e+006 1.011264028131e+006 1.011264028132e+006 1.011264028130e+006 1.011264028133e+006 1.011264028132e+006 1.011264028128e+006 1.011264028129e+006 1.011264028127e+006 1.011264028126e+006 1.011050815461e+006 1.011050815463e+006 1.011050815462e+006 1.011050815465e+006 1.011050815462e+006 1.011050815458e+006 1.011050815457e+006 1.011050815456e+006 1.011050815458e+006 1.010850408771e+006 1.010850408771e+006 1.010850408772e+006 1.010850408773e+006 1.010850408773e+006 1.010850408766e+006 1.010850408772e+006 1.010850408766e+006 1.010850408769e+006 1.010644227938e+006 1.010644227942e+006 1.010644227940e+006 1.010644227939e+006 1.010644227939e+006 1.010644227936e+006 1.010644227935e+006 1.010644227941e+006 1.010644227941e+006 1.010430760284e+006 1.010430760288e+006 1.010430760288e+006 1.010430760287e+006 1.010430760285e+006 1.010430760282e+006 1.010430760282e+006 1.010430760283e+006 1.010430760282e+006 1.010227375725e+006 1.010227375729e+006 1.010227375729e+006 1.010227375731e+006 1.010227375727e+006 1.010227375724e+006 1.010227375723e+006 1.010227375724e+006 1.010227375725e+006 1.010005042273e+006 1.010005042274e+006 1.010005042277e+006 1.010005042277e+006 1.010005042273e+006 1.010005042274e+006 1.010005042276e+006 1.010005042275e+006 1.010005042277e+006 1.009779260580e+006 1.009779260583e+006 1.009779260583e+006 1.009779260584e+006 1.009779260585e+006 1.009779260583e+006 1.009779260585e+006 1.009779260586e+006 1.009779260582e+006 1.009578418602e+006 1.009578418606e+006 1.009578418605e+006 1.009578418605e+006 1.009578418608e+006 1.009578418607e+006 1.009578418609e+006 1.009578418607e+006 1.009578418608e+006 1.009346691905e+006 1.009346691908e+006 1.009346691909e+006 1.009346691913e+006 1.009346691914e+006 1.009346691912e+006 1.009346691912e+006 1.009346691911e+006 1.009346691913e+006 1.009125708122e+006 1.009125708120e+006 1.009125708123e+006 1.009125708123e+006 1.009125708123e+006 1.009125708124e+006 1.009125708125e+006 1.009125708125e+006 1.009125708123e+006 1.008902979558e+006 1.008902979556e+006 1.008902979557e+006 1.008902979557e+006 1.008902979553e+006 1.008902979558e+006 1.008902979559e+006 1.008902979558e+006 1.008902979556e+006 1.008670228100e+006 1.008670228105e+006 1.008670228107e+006 1.008670228104e+006 1.008670228102e+006 1.008670228105e+006 1.008670228104e+006 1.008670228104e+006 1.008670228105e+006 1.008446430296e+006 1.008446430301e+006 1.008446430304e+006 1.008446430304e+006 1.008446430304e+006 1.008446430302e+006 1.008446430303e+006 1.008446430302e+006 1.008446430304e+006 1.008222513038e+006 1.008222513039e+006 1.008222513040e+006 1.008222513042e+006 1.008222513042e+006 1.008222513039e+006 1.008222513041e+006 1.008222513043e+006 1.008222513042e+006 1.007987094088e+006 1.007987094091e+006 1.007987094094e+006 1.007987094092e+006 1.007987094092e+006 1.007987094090e+006 1.007987094094e+006 1.007987094094e+006 1.007987094094e+006 1.007753502471e+006 1.007753502473e+006 1.007753502474e+006 1.007753502472e+006 1.007753502473e+006 1.007753502474e+006 1.007753502472e+006 1.007753502474e+006 1.007753502477e+006 1.007528488721e+006 1.007528488724e+006 1.007528488725e+006 1.007528488723e+006 1.007528488724e+006 1.007528488725e+006 1.007528488724e+006 1.007528488724e+006 1.007528488723e+006 1.007307480325e+006 1.007307480327e+006 1.007307480327e+006 1.007307480327e+006 1.007307480328e+006 1.007307480328e+006 1.007307480330e+006 1.007307480327e+006 1.007307480326e+006 1.007036644229e+006 1.007036644229e+006 1.007036644229e+006 1.007036644228e+006 1.007036644226e+006 1.007036644227e+006 1.007036644227e+006 1.007036644226e+006 1.007036644227e+006 1.006830730737e+006 1.006830730739e+006 1.006830730737e+006 1.006830730741e+006 1.006830730744e+006 1.006830730746e+006 1.006830730744e+006 1.006830730747e+006 1.006830730745e+006 1.006616089795e+006 1.006616089795e+006 1.006616089796e+006 1.006616089790e+006 1.006616089788e+006 1.006616089786e+006 1.006616089784e+006 1.006616089786e+006 1.006616089784e+006 1.006364691535e+006 1.006364691537e+006 1.006364691539e+006 1.006364691550e+006 1.006364691556e+006 1.006364691560e+006 1.006364691559e+006 1.006364691564e+006 1.006364691562e+006 1.006081192337e+006 1.006081192336e+006 1.006081192338e+006 1.006081192322e+006 1.006081192317e+006 1.006081192310e+006 1.006081192310e+006 1.006081192309e+006 1.006081192306e+006 1.005972662730e+006 1.005972662733e+006 1.005972662734e+006 1.005972662757e+006 1.005972662765e+006 1.005972662767e+006 1.005972662768e+006 1.005972662768e+006 1.005972662772e+006 1.005584749059e+006 1.005584749056e+006 1.005584749066e+006 1.005584749046e+006 1.005584749042e+006 1.005584749041e+006 1.005584749038e+006 1.005584749034e+006 1.005584749033e+006 1.005508298395e+006 1.005508298397e+006 1.005508298400e+006 1.005508298404e+006 1.005508298406e+006 1.005508298411e+006 1.005508298412e+006 1.005508298408e+006 1.005508298409e+006 1.005173247220e+006 1.005173247228e+006 1.005173247222e+006 1.005173247233e+006 1.005173247231e+006 1.005173247232e+006 1.005173247233e+006 1.005173247233e+006 1.005173247234e+006 1.004969201861e+006 1.004969201863e+006 1.004969201859e+006 1.004969201862e+006 1.004969201859e+006 1.004969201861e+006 1.004969201861e+006 1.004969201861e+006 1.004969201862e+006 1.004765467687e+006 1.004765467689e+006 1.004765467687e+006 1.004765467690e+006 1.004765467687e+006 1.004765467688e+006 1.004765467689e+006 1.004765467690e+006 1.004765467690e+006 1.004526320277e+006 1.004526320275e+006 1.004526320276e+006 1.004526320276e+006 1.004526320275e+006 1.004526320276e+006 1.004526320278e+006 1.004526320277e+006 1.004526320280e+006 1.004310333738e+006 1.004310333739e+006 1.004310333738e+006 1.004310333739e+006 1.004310333739e+006 1.004310333740e+006 1.004310333740e+006 1.004310333741e+006 1.004310333740e+006 1.004079103557e+006 1.004079103556e+006 1.004079103557e+006 1.004079103558e+006 1.004079103557e+006 1.004079103557e+006 1.004079103558e+006 1.004079103557e+006 1.004079103556e+006 1.003857904899e+006 1.003857904899e+006 1.003857904900e+006 1.003857904899e+006 1.003857904899e+006 1.003857904898e+006 1.003857904898e+006 1.003857904897e+006 1.003857904898e+006 1.003671456559e+006 1.003671456557e+006 1.003671456558e+006 1.003671456558e+006 1.003671456557e+006 1.003671456557e+006 1.003671456556e+006 1.003671456558e+006 1.003671456557e+006 1.003439364757e+006 1.003439364755e+006 1.003439364755e+006 1.003439364755e+006 1.003439364755e+006 1.003439364755e+006 1.003439364755e+006 1.003439364753e+006 1.003439364758e+006 1.003240926305e+006 1.003240926305e+006 1.003240926305e+006 1.003240926303e+006 1.003240926303e+006 1.003240926303e+006 1.003240926304e+006 1.003240926303e+006 1.003240926303e+006 1.003051546042e+006 1.003051546039e+006 1.003051546041e+006 1.003051546041e+006 1.003051546041e+006 1.003051546041e+006 1.003051546040e+006 1.003051546041e+006 1.003051546042e+006 1.002840859876e+006 1.002840859876e+006 1.002840859875e+006 1.002840859876e+006 1.002840859877e+006 1.002840859875e+006 1.002840859876e+006 1.002840859877e+006 1.002840859877e+006 1.002677223951e+006 1.002677223952e+006 1.002677223953e+006 1.002677223953e+006 1.002677223954e+006 1.002677223953e+006 1.002677223952e+006 1.002677223953e+006 1.002677223954e+006 1.002514528225e+006 1.002514528226e+006 1.002514528227e+006 1.002514528226e+006 1.002514528226e+006 1.002514528227e+006 1.002514528226e+006 1.002514528226e+006 1.002514528225e+006 1.002388796697e+006 1.002388796697e+006 1.002388796698e+006 1.002388796697e+006 1.002388796698e+006 1.002388796697e+006 1.002388796697e+006 1.002388796697e+006 1.002388796697e+006 1.002263066571e+006 1.002263066571e+006 1.002263066571e+006 1.002263066572e+006 1.002263066572e+006 1.002263066571e+006 1.002263066571e+006 1.002263066571e+006 1.002263066571e+006 1.002137336949e+006 1.002137336949e+006 1.002137336949e+006 1.002137336949e+006 1.002137336949e+006 1.002137336949e+006 1.002137336949e+006 1.002137336948e+006 1.002137336948e+006 1.002011608016e+006 1.002011608016e+006 1.002011608016e+006 1.002011608016e+006 1.002011608016e+006 1.002011608016e+006 1.002011608016e+006 1.002011608015e+006 1.002011608015e+006 1.001885879717e+006 1.001885879717e+006 1.001885879717e+006 1.001885879717e+006 1.001885879717e+006 1.001885879717e+006 1.001885879717e+006 1.001885879716e+006 1.001885879716e+006 1.001760151999e+006 1.001760151999e+006 1.001760151999e+006 1.001760151999e+006 1.001760151999e+006 1.001760151999e+006 1.001760151999e+006 1.001760151999e+006 1.001760151999e+006 1.001634424818e+006 1.001634424818e+006 1.001634424818e+006 1.001634424818e+006 1.001634424818e+006 1.001634424818e+006 1.001634424818e+006 1.001634424818e+006 1.001634424818e+006 1.001508698132e+006 1.001508698132e+006 1.001508698132e+006 1.001508698132e+006 1.001508698132e+006 1.001508698132e+006 1.001508698132e+006 1.001508698132e+006 1.001508698132e+006 1.001382971894e+006 1.001382971895e+006 1.001382971895e+006 1.001382971895e+006 1.001382971895e+006 1.001382971895e+006 1.001382971895e+006 1.001382971895e+006 1.001382971895e+006 1.001257246062e+006 1.001257246062e+006 1.001257246062e+006 1.001257246062e+006 1.001257246062e+006 1.001257246062e+006 1.001257246062e+006 1.001257246062e+006 1.001257246062e+006 1.001131520589e+006 1.001131520589e+006 1.001131520588e+006 1.001131520588e+006 1.001131520589e+006 1.001131520589e+006 1.001131520589e+006 1.001131520589e+006 1.001131520589e+006 1.001005795429e+006 1.001005795429e+006 1.001005795429e+006 1.001005795429e+006 1.001005795429e+006 1.001005795430e+006 1.001005795430e+006 1.001005795430e+006 1.001005795430e+006 1.000880070539e+006 1.000880070539e+006 1.000880070539e+006 1.000880070539e+006 1.000880070539e+006 1.000880070539e+006 1.000880070539e+006 1.000880070539e+006 1.000880070539e+006 1.000754345872e+006 1.000754345872e+006 1.000754345872e+006 1.000754345872e+006 1.000754345872e+006 1.000754345872e+006 1.000754345872e+006 1.000754345872e+006 1.000754345872e+006 1.000628621382e+006 1.000628621382e+006 1.000628621382e+006 1.000628621382e+006 1.000628621382e+006 1.000628621383e+006 1.000628621383e+006 1.000628621383e+006 1.000628621383e+006 1.000502897025e+006 1.000502897025e+006 1.000502897025e+006 1.000502897025e+006 1.000502897025e+006 1.000502897025e+006 1.000502897025e+006 1.000502897025e+006 1.000502897025e+006 1.000377172754e+006 1.000377172754e+006 1.000377172754e+006 1.000377172754e+006 1.000377172754e+006 1.000377172754e+006 1.000377172754e+006 1.000377172754e+006 1.000377172754e+006 1.000251448523e+006 1.000251448523e+006 1.000251448523e+006 1.000251448523e+006 1.000251448523e+006 1.000251448523e+006 1.000251448523e+006 1.000251448523e+006 1.000251448523e+006 1.000125724287e+006 1.000125724287e+006 1.000125724287e+006 1.000125724287e+006 1.000125724287e+006 1.000125724287e+006 1.000125724287e+006 1.000125724287e+006 1.000125724287e+006 1.000000000000e+006 1.000000000000e+006 1.000000000000e+006 1.000000000000e+006 1.000000000000e+006 1.000000000000e+006 1.000000000000e+006 1.000000000000e+006 1.000000000000e+006 
        </DataArray>
        <DataArray type="Float64" Name="MOLAR_FRACTION" format="ascii">