<?xml version="1.0"?>
<VTKFile type="UnstructuredGrid" version="0.1" byte_order="LittleEndian">
  <UnstructuredGrid>
    <Piece NumberOfPoints="909" NumberOfCells="800">
      <Points>
        <DataArray type="Float64" NumberOfComponents="3" format="ascii">
          0.000000000000e+000 0.000000000000e+000 0.000000000000e+000
          2.000000000000e+000 0.000000000000e+000 0.000000000000e+000
          2.000000000000e+000 2.500000000000e+000 0.000000000000e+000
          0.000000000000e+000 2.500000000000e+000 0.000000000000e+000
          2.000000000000e+000 5.000000000000e+000 0.000000000000e+000
          0.000000000000e+000 5.000000000000e+000 0.000000000000e+000
          2.000000000000e+000 7.500000000000e+000 0.000000000000e+000
          0.000000000000e+000 7.500000000000e+000 0.000000000000e+000
          2.000000000000e+000 1.000000000000e+001 0.000000000000e+000
          0.000000000000e+000 1.000000000000e+001 0.000000000000e+000
          2.000000000000e+000 1.250000000000e+001 0.000000000000e+000
          0.000000000000e+000 1.250000000000e+001 0.000000000000e+000
          2.000000000000e+000 1.500000000000e+001 0.000000000000e+000
          0.000000000000e+000 1.500000000000e+001 0.000000000000e+000
          2.000000000000e+000 1.750000000000e+001 0.000000000000e+000
          0.000000000000e+000 1.750000000000e+001 0.000000000000e+000
          2.000000000000e+000 2.000000000000e+001 0.000000000000e+000
          0.000000000000e+000 2.000000000000e+001 0.000000000000e+000
          4.000000000000e+000 0.000000000000e+000 0.000000000000e+000
          4.000000000000e+000 2.500000000000e+000 0.000000000000e+000
          4.000000000000e+000 5.000000000000e+000 0.000000000000e+000
          4.000000000000e+000 7.500000000000e+000 0.000000000000e+000
          4.000000000000e+000 1.000000000000e+001 0.000000000000e+000
          4.000000000000e+000 1.250000000000e+001 0.000000000000e+000
          4.000000000000e+000 1.500000000000e+001 0.000000000000e+000
          4.000000000000e+000 1.750000000000e+001 0.000000000000e+000
          4.000000000000e+000 2.000000000000e+001 0.000000000000e+000
          6.000000000000e+000 0.000000000000e+000 0.000000000000e+000
          6.000000000000e+000 2.500000000000e+000 0.000000000000e+000
          6.000000000000e+000 5.000000000000e+000 0.000000000000e+000
          6.000000000000e+000 7.500000000000e+000 0.000000000000e+000
          6.000000000000e+000 1.000000000000e+001 0.000000000000e+000
          6.000000000000e+000 1.250000000000e+001 0.000000000000e+000
          6.000000000000e+000 1.500000000000e+001 0.000000000000e+000
          6.000000000000e+000 1.750000000000e+001 0.000000000000e+000
          6.000000000000e+000 2.000000000000e+001 0.000000000000e+000
          8.000000000000e+000 0.000000000000e+000 0.000000000000e+000
          8.000000000000e+000 2.500000000000e+000 0.000000000000e+000
          8.000000000000e+000 5.000000000000e+000 0.000000000000e+000
          8.000000000000e+000 7.500000000000e+000 0.000000000000e+000
          8.000000000000e+000 1.000000000000e+001 0.000000000000e+000
          8.000000000000e+000 1.250000000000e+001 0.000000000000e+000
          8.000000000000e+000 1.500000000000e+001 0.000000000000e+000
          8.000000000000e+000 1.750000000000e+001 0.000000000000e+000
          8.000000000000e+000 2.000000000000e+001 0.000000000000e+000
          1.000000000000e+001 0.000000000000e+000 0.000000000000e+000
          1.000000000000e+001 2.500000000000e+000 0.000000000000e+000
          1.000000000000e+001 5.000000000000e+000 0.000000000000e+000
          1.000000000000e+001 7.500000000000e+000 0.000000000000e+000
          1.000000000000e+001 1.000000000000e+001 0.000000000000e+000
          1.000000000000e+001 1.250000000000e+001 0.000000000000e+000
          1.000000000000e+001 1.500000000000e+001 0.000000000000e+000
          1.000000000000e+001 1.750000000000e+001 0.000000000000e+000
          1.000000000000e+001 2.000000000000e+001 0.000000000000e+000
          1.200000000000e+001 0.000000000000e+000 0.000000000000e+000
          1.200000000000e+001 2.500000000000e+000 0.000000000000e+000
          1.200000000000e+001 5.000000000000e+000 0.000000000000e+000
          1.200000000000e+001 7.500000000000e+000 0.000000000000e+000
          1.200000000000e+001 1.000000000000e+001 0.000000000000e+000
          1.200000000000e+001 1.250000000000e+001 0.000000000000e+000
          1.200000000000e+001 1.500000000000e+001 0.000000000000e+000
          1.200000000000e+001 1.750000000000e+001 0.000000000000e+000
          1.200000000000e+001 2.000000000000e+001 0.000000000000e+000
          1.400000000000e+001 0.000000000000e+000 0.000000000000e+000
          1.400000000000e+001 2.500000000000e+000 0.000000000000e+000
          1.400000000000e+001 5.000000000000e+000 0.000000000000e+000
          1.400000000000e+001 7.500000000000e+000 0.000000000000e+000
          1.400000000000e+001 1.000000000000e+001 0.000000000000e+000
          1.400000000000e+001 1.250000000000e+001 0.000000000000e+000
          1.400000000000e+001 1.500000000000e+001 0.000000000000e+000
          1.400000000000e+001 1.750000000000e+001 0.000000000000e+000
          1.400000000000e+001 2.000000000000e+001 0.000000000000e+000
          1.600000000000e+001 0.000000000000e+000 0.000000000000e+000
          1.600000000000e+001 2.500000000000e+000 0.000000000000e+000
          1.600000000000e+001 5.000000000000e+000 0.000000000000e+000
          1.600000000000e+001 7.500000000000e+000 0.000000000000e+000
          1.600000000000e+001 1.000000000000e+001 0.000000000000e+000
          1.600000000000e+001 1.250000000000e+001 0.000000000000e+000
          1.600000000000e+001 1.500000000000e+001 0.000000000000e+000
          1.600000000000e+001 1.750000000000e+001 0.000000000000e+000
          1.600000000000e+001 2.000000000000e+001 0.000000000000e+000
          1.800000000000e+001 0.000000000000e+000 0.000000000000e+000
          1.800000000000e+001 2.500000000000e+000 0.000000000000e+000
          1.800000000000e+001 5.000000000000e+000 0.000000000000e+000
          1.800000000000e+001 7.500000000000e+000 0.000000000000e+000
          1.800000000000e+001 1.000000000000e+001 0.000000000000e+000
          1.800000000000e+001 1.250000000000e+001 0.000000000000e+000
          1.800000000000e+001 1.500000000000e+001 0.000000000000e+000
          1.800000000000e+001 1.750000000000e+001 0.000000000000e+000
          1.800000000000e+001 2.000000000000e+001 0.000000000000e+000
          2.000000000000e+001 0.000000000000e+000 0.000000000000e+000
          2.000000000000e+001 2.500000000000e+000 0.000000000000e+000
          2.000000000000e+001 5.000000000000e+000 0.000000000000e+000
          2.000000000000e+001 7.500000000000e+000 0.000000000000e+000
          2.000000000000e+001 1.000000000000e+001 0.000000000000e+000
          2.000000000000e+001 1.250000000000e+001 0.000000000000e+000
          2.000000000000e+001 1.500000000000e+001 0.000000000000e+000
          2.000000000000e+001 1.750000000000e+001 0.000000000000e+000
          2.000000000000e+001 2.000000000000e+001 0.000000000000e+000
          2.200000000000e+001 0.000000000000e+000 0.000000000000e+000
          2.200000000000e+001 2.500000000000e+000 0.000000000000e+000
          2.200000000000e+001 5.000000000000e+000 0.000000000000e+000
          2.200000000000e+001 7.500000000000e+000 0.000000000000e+000
          2.200000000000e+001 1.000000000000e+001 0.000000000000e+000
          2.200000000000e+001 1.250000000000e+001 0.000000000000e+000
          2.200000000000e+001 1.500000000000e+001 0.000000000000e+000
          2.200000000000e+001 1.750000000000e+001 0.000000000000e+000
          2.200000000000e+001 2.000000000000e+001 0.000000000000e+000
          2.400000000000e+001 0.000000000000e+000 0.000000000000e+000
          2.400000000000e+001 2.500000000000e+000 0.000000000000e+000
          2.400000000000e+001 5.000000000000e+000 0.000000000000e+000
          2.400000000000e+001 7.500000000000e+000 0.000000000000e+000
          2.400000000000e+001 1.000000000000e+001 0.000000000000e+000
          2.400000000000e+001 1.250000000000e+001 0.000000000000e+000
          2.400000000000e+001 1.500000000000e+001 0.000000000000e+000
          2.400000000000e+001 1.750000000000e+001 0.000000000000e+000
          2.400000000000e+001 2.000000000000e+001 0.000000000000e+000
          2.600000000000e+001 0.000000000000e+000 0.000000000000e+000
          2.600000000000e+001 2.500000000000e+000 0.000000000000e+000
          2.600000000000e+001 5.000000000000e+000 0.000000000000e+000
          2.600000000000e+001 7.500000000000e+000 0.000000000000e+000
          2.600000000000e+001 1.000000000000e+001 0.000000000000e+000
          2.600000000000e+001 1.250000000000e+001 0.000000000000e+000
          2.600000000000e+001 1.500000000000e+001 0.000000000000e+000
          2.600000000000e+001 1.750000000000e+001 0.000000000000e+000
          2.600000000000e+001 2.000000000000e+001 0.000000000000e+000
          2.800000000000e+001 0.000000000000e+000 0.000000000000e+000
          2.800000000000e+001 2.500000000000e+000 0.000000000000e+000
          2.800000000000e+001 5.000000000000e+000 0.000000000000e+000
          2.800000000000e+001 7.500000000000e+000 0.000000000000e+000
          2.800000000000e+001 1.000000000000e+001 0.000000000000e+000
          2.800000000000e+001 1.250000000000e+001 0.000000000000e+000
          2.800000000000e+001 1.500000000000e+001 0.000000000000e+000
          2.800000000000e+001 1.750000000000e+001 0.000000000000e+000
          2.800000000000e+001 2.000000000000e+001 0.000000000000e+000
          3.000000000000e+001 0.000000000000e+000 0.000000000000e+000
          3.000000000000e+001 2.500000000000e+000 0.000000000000e+000
          3.000000000000e+001 5.000000000000e+000 0.000000000000e+000
          3.000000000000e+001 7.500000000000e+000 0.000000000000e+000
[...]
      <PointData Scalars="LIQUID_PRESSURE">
        <DataArray type="Float64" Name="LIQUID_PRESSURE" format="ascii">
          1.037275478430e+006 1.037285249762e+006 1.037285249775e+006 1.037275478351e+006 1.037285249800e+006 1.037275478297e+006 1.037285249767e+006 1.037275478382e+006 1.037285249786e+006 1.037275478361e+006 1.037285249826e+006 1.037275478253e+006 1.037285249816e+006 1.037275478252e+006 1.037285249832e+006 1.037275478215e+006 1.037285249861e+006 1.037275478149e+006 1.037264855710e+006 1.037264855743e+006 1.037264855760e+006 1.037264855722e+006 1.037264855728e+006 1.037264855770e+006 1.037264855747e+006 1.037264855763e+006 1.037264855792e+006 1.037204307856e+006 1.037204307878e+006 1.037204307889e+006 1.037204307862e+006 1.037204307868e+006 1.037204307887e+006 1.037204307867e+006 1.037204307870e+006 1.037204307882e+006 1.037185942388e+006 1.037185942398e+006 1.037185942410e+006 1.037185942388e+006 1.037185942389e+006 1.037185942398e+006 1.037185942386e+006 1.037185942381e+006 1.037185942391e+006 1.037105601981e+006 1.037105601990e+006 1.037105601993e+006 1.037105601987e+006 1.037105601980e+006 1.037105601994e+006 1.037105601984e+006 1.037105601981e+006 1.037105601987e+006 1.037017485717e+006 1.037017485722e+006 1.037017485726e+006 1.037017485721e+006 1.037017485721e+006 1.037017485725e+006 1.037017485723e+006 1.037017485723e+006 1.037017485724e+006 1.036953582060e+006 1.036953582061e+006 1.036953582064e+006 1.036953582059e+006 1.036953582064e+006 1.036953582062e+006 1.036953582062e+006 1.036953582061e+006 1.036953582063e+006 1.036818361173e+006 1.036818361172e+006 1.036818361173e+006 1.036818361171e+006 1.036818361173e+006 1.036818361174e+006 1.036818361174e+006 1.036818361176e+006 1.036818361172e+006 1.036717185253e+006 1.036717185251e+006 1.036717185252e+006 1.036717185252e+006 1.036717185252e+006 1.036717185251e+006 1.036717185251e+006 1.036717185251e+006 1.036717185252e+006 1.036582972614e+006 1.036582972617e+006 1.036582972617e+006 1.036582972615e+006 1.036582972617e+006 1.036582972616e+006 1.036582972616e+006 1.036582972615e+006 1.036582972616e+006 1.036425421316e+006 1.036425421319e+006 1.036425421316e+006 1.036425421318e+006 1.036425421316e+006 1.036425421316e+006 1.036425421320e+006 1.036425421317e+006 1.036425421319e+006 1.036282109753e+006 1.036282109752e+006 1.036282109752e+006 1.036282109752e+006 1.036282109751e+006 1.036282109753e+006 1.036282109751e+006 1.036282109752e+006 1.036282109752e+006 1.036089762201e+006 1.036089762200e+006 1.036089762202e+006 1.036089762201e+006 1.036089762202e+006 1.036089762201e+006 1.036089762201e+006 1.036089762200e+006 1.036089762201e+006 1.035920788576e+006 1.035920788579e+006 1.035920788576e+006 1.035920788578e+006 1.035920788577e+006 1.035920788577e+006 1.035920788578e+006 1.035920788579e+006 1.035920788577e+006 1.035711105883e+006 1.035711105882e+006 1.035711105884e+006 1.035711105881e+006 1.035711105884e+006 1.035711105882e+006 1.035711105883e+006 1.035711105882e+006 1.035711105883e+006 1.035500718913e+006 1.035500718910e+006 1.035500718911e+006 1.035500718911e+006 1.035500718909e+006 1.035500718912e+006 1.035500718910e+006 1.035500718911e+006 1.035500718910e+006 1.035284861259e+006 1.035284861260e+006 1.035284861259e+006 1.035284861261e+006 1.035284861260e+006 1.035284861259e+006 1.035284861260e+006 1.035284861261e+006 1.035284861260e+006 1.035027406781e+006 1.035027406782e+006 1.035027406781e+006 1.035027406781e+006 1.035027406782e+006 1.035027406782e+006 1.035027406781e+006 1.035027406781e+006 1.035027406782e+006 1.034799632705e+006 1.034799632705e+006 1.034799632705e+006 1.034799632705e+006 1.034799632705e+006 1.034799632705e+006 1.034799632705e+006 1.034799632704e+006 1.034799632706e+006 1.034520884648e+006 1.034520884647e+006 1.034520884649e+006 1.034520884648e+006 1.034520884648e+006 1.034520884649e+006 1.034520884648e+006 1.034520884648e+006 1.034520884648e+006 1.034253621659e+006 1.034253621659e+006 1.034253621660e+006 1.034253621659e+006 1.034253621659e+006 1.034253621658e+006 1.034253621659e+006 1.034253621660e+006 1.034253621658e+006 1.033966243876e+006 1.033966243874e+006 1.033966243875e+006 1.033966243876e+006 1.033966243875e+006 1.033966243876e+006 1.033966243876e+006 1.033966243875e+006 1.033966243876e+006 1.033664713703e+006 1.033664713704e+006 1.033664713703e+006 1.033664713704e+006 1.033664713703e+006 1.033664713704e+006 1.033664713703e+006 1.033664713704e+006 1.033664713704e+006 1.033363621285e+006 1.033363621284e+006 1.033363621285e+006 1.033363621284e+006 1.033363621285e+006 1.033363621284e+006 1.033363621285e+006 1.033363621284e+006 1.033363621284e+006 1.033028502785e+006 1.033028502785e+006 1.033028502785e+006 1.033028502786e+006 1.033028502785e+006 1.033028502785e+006 1.033028502785e+006 1.033028502785e+006 1.033028502785e+006 1.032708099207e+006 1.032708099206e+006 1.032708099206e+006 1.032708099206e+006 1.032708099206e+006 1.032708099206e+006 1.032708099206e+006 1.032708099207e+006 1.032708099206e+006 1.032359179542e+006 1.032359179543e+006 1.032359179543e+006 1.032359179543e+006 1.032359179543e+006 1.032359179543e+006 1.032359179543e+006 1.032359179543e+006 1.032359179543e+006 1.031999393868e+006 1.031999393869e+006 1.031999393868e+006 1.031999393868e+006 1.031999393868e+006 1.031999393868e+006 1.031999393869e+006 1.031999393868e+006 1.031999393868e+006 1.031649082400e+006 1.031649082400e+006 1.031649082400e+006 1.031649082400e+006 1.031649082400e+006 1.031649082400e+006 1.031649082400e+006 1.031649082400e+006 1.031649082400e+006 1.031256883627e+006 1.031256883627e+006 1.031256883627e+006 1.031256883627e+006 1.031256883628e+006 1.031256883627e+006 1.031256883627e+006 1.031256883627e+006 1.031256883628e+006 1.030880461389e+006 1.030880461389e+006 1.030880461389e+006 1.030880461389e+006 1.030880461389e+006 1.030880461389e+006 1.030880461389e+006 1.030880461389e+006 1.030880461389e+006 1.030487844387e+006 1.030487844387e+006 1.030487844387e+006 1.030487844387e+006 1.030487844387e+006 1.030487844387e+006 1.030487844387e+006 1.030487844387e+006 1.030487844386e+006 1.030068599821e+006 1.030068599821e+006 1.030068599821e+006 1.030068599821e+006 1.030068599821e+006 1.030068599821e+006 1.030068599821e+006 1.030068599821e+006 1.030068599821e+006 1.029670060370e+006 1.029670060370e+006 1.029670060370e+006 1.029670060370e+006 1.029670060370e+006 1.029670060370e+006 1.029670060370e+006 1.029670060370e+006 1.029670060370e+006 1.029236777056e+006 1.029236777056e+006 1.029236777056e+006 1.029236777056e+006 1.029236777056e+006 1.029236777056e+006 1.029236777056e+006 1.029236777056e+006 1.029236777056e+006 1.028801759700e+006 1.028801759700e+006 1.028801759700e+006 1.028801759700e+006 1.028801759700e+006 1.028801759700e+006 1.028801759700e+006 1.028801759700e+006 1.028801759700e+006 1.028369041586e+006 1.028369041586e+006 1.028369041586e+006 1.028369041586e+006 1.028369041586e+006 1.028369041586e+006 1.028369041586e+006 1.028369041586e+006 1.028369041586e+006 1.027909871537e+006 1.027909871537e+006 1.027909871537e+006 1.027909871537e+006 1.027909871537e+006 1.027909871537e+006 1.027909871537e+006 1.027909871537e+006 1.027909871537e+006 1.027452045974e+006 1.027452045974e+006 1.027452045974e+006 1.027452045975e+006 1.027452045974e+006 1.027452045974e+006 1.027452045974e+006 1.027452045974e+006 1.027452045974e+006 1.026996973787e+006 1.026996973787e+006 1.026996973787e+006 1.026996973787e+006 1.026996973787e+006 1.026996973787e+006 1.026996973787e+006 1.026996973787e+006 1.026996973787e+006 1.026508542613e+006 1.026508542613e+006 1.026508542613e+006 1.026508542613e+006 1.026508542613e+006 1.026508542613e+006 1.026508542613e+006 1.026508542613e+006 1.026508542613e+006 1.026031568251e+006 1.026031568250e+006 1.026031568251e+006 1.026031568250e+006 1.026031568251e+006 1.026031568250e+006 1.026031568250e+006 1.026031568250e+006 1.026031568251e+006 1.025545118208e+006 1.025545118208e+006 1.025545118208e+006 1.025545118208e+006 1.025545118208e+006 1.025545118208e+006 1.025545118208e+006 1.025545118208e+006 1.025545118208e+006 1.025047523408e+006 1.025047523408e+006 1.025047523408e+006 1.025047523408e+006 1.025047523408e+006 1.025047523408e+006 1.025047523408e+006 1.025047523408e+006 1.025047523408e+006 1.024555063485e+006 1.024555063485e+006 1.024555063485e+006 1.024555063485e+006 1.024555063485e+006 1.024555063485e+006 1.024555063485e+006 1.024555063486e+006 1.024555063485e+006 1.024035290416e+006 1.024035290416e+006 1.024035290416e+006 1.024035290416e+006 1.024035290416e+006 1.024035290416e+006 1.024035290416e+006 1.024035290416e+006 1.024035290416e+006 1.023512320247e+006 1.023512320247e+006 1.023512320247e+006 1.023512320247e+006 1.023512320247e+006 1.023512320247e+006 1.023512320247e+006 1.023512320247e+006 1.023512320247e+006 1.023016631581e+006 1.023016631581e+006 1.023016631581e+006 1.023016631581e+006 1.023016631581e+006 1.023016631581e+006 1.023016631581e+006 1.023016631581e+006 1.023016631581e+006 1.022481041856e+006 1.022481041856e+006 1.022481041856e+006 1.022481041856e+006 1.022481041857e+006 1.022481041856e+006 1.022481041856e+006 1.022481041856e+006 1.022481041857e+006 1.021951924249e+006 1.021951924249e+006 1.021951924249e+006 1.021951924249e+006 1.021951924249e+006 1.021951924249e+006 1.021951924249e+006 1.021951924249e+006 1.021951924249e+006 1.021417389207e+006 1.021417389207e+006 1.021417389207e+006 1.021417389207e+006 1.021417389207e+006 1.021417389207e+006 1.021417389207e+006 1.021417389207e+006 1.021417389206e+006 1.020869973665e+006 1.020869973664e+006 1.020869973665e+006 1.020869973664e+006 1.020869973664e+006 1.020869973664e+006 1.020869973664e+006 1.020869973664e+006 1.020869973665e+006 1.020334227067e+006 1.020334227067e+006 1.020334227067e+006 1.020334227067e+006 1.020334227067e+006 1.020334227067e+006 1.020334227067e+006 1.020334227067e+006 1.020334227067e+006 1.019795226893e+006 1.019795226892e+006 1.019795226892e+006 1.019795226893e+006 1.019795226893e+006 1.019795226893e+006 1.019795226892e+006 1.019795226893e+006 1.019795226893e+006 1.019240512372e+006 1.019240512372e+006 1.019240512372e+006 1.019240512372e+006 1.019240512372e+006 1.019240512372e+006 1.019240512371e+006 1.019240512371e+006 1.019240512371e+006 1.018683982950e+006 1.018683982951e+006 1.018683982950e+006 1.018683982950e+006 1.018683982950e+006 1.018683982950e+006 1.018683982950e+006 1.018683982950e+006 1.018683982951e+006 1.018139652266e+006 1.018139652266e+006 1.018139652266e+006 1.018139652266e+006 1.018139652266e+006 1.018139652266e+006 1.018139652266e+006 1.018139652266e+006 1.018139652266e+006 1.017587790305e+006 1.017587790304e+006 1.017587790305e+006 1.017587790305e+006 1.017587790304e+006 1.017587790304e+006 1.017587790305e+006 1.017587790305e+006 1.017587790304e+006 1.016984144361e+006 1.016984144362e+006 1.016984144361e+006 1.016984144362e+006 1.016984144361e+006 1.016984144361e+006 1.016984144361e+006 1.016984144361e+006 1.016984144361e+006 1.016463058870e+006 1.016463058870e+006 1.016463058871e+006 1.016463058872e+006 1.016463058873e+006 1.016463058874e+006 1.016463058874e+006 1.016463058875e+006 1.016463058874e+006 1.015931829939e+006 1.015931829940e+006 1.015931829938e+006 1.015931829933e+006 1.015931829930e+006 1.015931829928e+006 1.015931829928e+006 1.015931829927e+006 1.015931829927e+006 1.015337346726e+006 1.015337346726e+006 1.015337346728e+006 1.015337346738e+006 1.015337346744e+006 1.015337346747e+006 1.015337346748e+006 1.015337346750e+006 1.015337346750e+006 1.014716166594e+006 1.014716166594e+006 1.014716166593e+006 1.014716166576e+006 1.014716166568e+006 1.014716166564e+006 1.014716166561e+006 1.014716166560e+006 1.014716166559e+006 1.014301246564e+006 1.014301246565e+006 1.014301246564e+006 1.014301246588e+006 1.014301246596e+006 1.014301246601e+006 1.014301246604e+006 1.014301246606e+006 1.014301246607e+006 1.013568325463e+006 1.013568325461e+006 1.013568325464e+006 1.013568325441e+006 1.013568325437e+006 1.013568325432e+006 1.013568325429e+006 1.013568325427e+006 1.013568325427e+006 1.013186539869e+006 1.013186539872e+006 1.013186539869e+006 1.013186539877e+006 1.013186539876e+006 1.013186539879e+006 1.013186539879e+006 1.013186539880e+006 1.013186539880e+006 1.012508197613e+006 1.012508197616e+006 1.012508197610e+006 1.012508197623e+006 1.012508197620e+006 1.012508197622e+006 1.012508197622e+006 1.012508197622e+006 1.012508197623e+006 1.011971149579e+006 1.011971149581e+006 1.011971149575e+006 1.011971149581e+006 1.011971149575e+006 1.011971149576e+006 1.011971149577e+006 1.011971149576e+006 1.011971149577e+006 1.011458778602e+006 1.011458778602e+006 1.011458778599e+006 1.011458778602e+006 1.011458778599e+006 1.011458778599e+006 1.011458778599e+006 1.011458778598e+006 1.011458778599e+006 1.010904953519e+006 1.010904953518e+006 1.010904953518e+006 1.010904953519e+006 1.010904953517e+006 1.010904953517e+006 1.010904953518e+006 1.010904953517e+006 1.010904953517e+006 1.010371079795e+006 1.010371079795e+006 1.010371079794e+006 1.010371079795e+006 1.010371079795e+006 1.010371079795e+006 1.010371079796e+006 1.010371079796e+006 1.010371079795e+006 1.009818171689e+006 1.009818171689e+006 1.009818171688e+006 1.009818171689e+006 1.009818171689e+006 1.009818171688e+006 1.009818171689e+006 1.009818171689e+006 1.009818171689e+006 1.009282343386e+006 1.009282343386e+006 1.009282343387e+006 1.009282343387e+006 1.009282343387e+006 1.009282343387e+006 1.009282343387e+006 1.009282343387e+006 1.009282343387e+006 1.008801280097e+006 1.008801280097e+006 1.008801280097e+006 1.008801280097e+006 1.008801280097e+006 1.008801280097e+006 1.008801280097e+006 1.008801280097e+006 1.008801280097e+006 1.008271850719e+006 1.008271850718e+006 1.008271850717e+006 1.008271850718e+006 1.008271850718e+006 1.008271850718e+006 1.008271850717e+006 1.008271850718e+006 1.008271850719e+006 1.007784777951e+006 1.007784777952e+006 1.007784777952e+006 1.007784777951e+006 1.007784777950e+006 1.007784777952e+006 1.007784777952e+006 1.007784777951e+006 1.007784777950e+006 1.007318491657e+006 1.007318491657e+006 1.007318491657e+006 1.007318491657e+006 1.007318491656e+006 1.007318491657e+006 1.007318491657e+006 1.007318491657e+006 1.007318491657e+006 1.006838541033e+006 1.006838541033e+006 1.006838541033e+006 1.006838541033e+006 1.006838541033e+006 1.006838541033e+006 1.006838541033e+006 1.006838541033e+006 1.006838541033e+006 1.006440365100e+006 1.006440365100e+006 1.006440365100e+006 1.006440365101e+006 1.006440365101e+006 1.006440365101e+006 1.006440365101e+006 1.006440365100e+006 1.006440365101e+006 1.006099376072e+006 1.006099376071e+006 1.006099376072e+006 1.006099376072e+006 1.006099376072e+006 1.006099376072e+006 1.006099376072e+006 1.006099376072e+006 1.006099376072e+006 1.005794391504e+006 1.005794391503e+006 1.005794391504e+006 1.005794391504e+006 1.005794391504e+006 1.005794391504e+006 1.005794391504e+006 1.005794391504e+006 1.005794391504e+006 1.005489409507e+006 1.005489409507e+006 1.005489409508e+006 1.005489409508e+006 1.005489409508e+006 1.005489409508e+006 1.005489409507e+006 1.005489409507e+006 1.005489409507e+006 1.005184429925e+006 1.005184429925e+006 1.005184429925e+006 1.005184429925e+006 1.005184429926e+006 1.005184429926e+006 1.005184429925e+006 1.005184429925e+006 1.005184429925e+006 1.004879452589e+006 1.004879452590e+006 1.004879452590e+006 1.004879452590e+006 1.004879452589e+006 1.004879452590e+006 1.004879452590e+006 1.004879452589e+006 1.004879452589e+006 1.004574477314e+006 1.004574477314e+006 1.004574477314e+006 1.004574477314e+006 1.004574477314e+006 1.004574477314e+006 1.004574477314e+006 1.004574477314e+006 1.004574477314e+006 1.004269503953e+006 1.004269503953e+006 1.004269503953e+006 1.004269503952e+006 1.004269503952e+006 1.004269503952e+006 1.004269503952e+006 1.004269503952e+006 1.004269503952e+006 1.003964532372e+006 1.003964532372e+006 1.003964532372e+006 1.003964532372e+006 1.003964532372e+006 1.003964532372e+006 1.003964532372e+006 1.003964532372e+006 1.003964532372e+006 1.003659562440e+006 1.003659562440e+006 1.003659562440e+006 1.003659562440e+006 1.003659562440e+006 1.003659562440e+006 1.003659562440e+006 1.003659562439e+006 1.003659562439e+006 1.003354594017e+006 1.003354594017e+006 1.003354594017e+006 1.003354594017e+006 1.003354594017e+006 1.003354594017e+006 1.003354594017e+006 1.003354594016e+006 1.003354594016e+006 1.003049626962e+006 1.003049626962e+006 1.003049626962e+006 1.003049626962e+006 1.003049626962e+006 1.003049626962e+006 1.003049626962e+006 1.003049626962e+006 1.003049626962e+006 1.002744661133e+006 1.002744661133e+006 1.002744661133e+006 1.002744661132e+006 1.002744661133e+006 1.002744661133e+006 1.002744661133e+006 1.002744661132e+006 1.002744661133e+006 1.002439696386e+006 1.002439696386e+006 1.002439696386e+006 1.002439696386e+006 1.002439696386e+006 1.002439696386e+006 1.002439696386e+006 1.002439696386e+006 1.002439696386e+006 1.002134732578e+006 1.002134732578e+006 1.002134732578e+006 1.002134732578e+006 1.002134732578e+006 1.002134732578e+006 1.002134732578e+006 1.002134732578e+006 1.002134732578e+006 1.001829769565e+006 1.001829769564e+006 1.001829769564e+006 1.001829769564e+006 1.001829769564e+006 1.001829769565e+006 1.001829769565e+006 1.001829769565e+006 1.001829769564e+006 1.001524807200e+006 1.001524807200e+006 1.001524807200e+006 1.001524807200e+006 1.001524807200e+006 1.001524807200e+006 1.001524807200e+006 1.001524807200e+006 1.001524807200e+006 1.001219845339e+006 1.001219845339e+006 1.001219845339e+006 1.001219845339e+006 1.001219845339e+006 1.001219845339e+006 1.001219845339e+006 1.001219845339e+006 1.001219845339e+006 1.000914883835e+006 1.000914883835e+006 1.000914883835e+006 1.000914883835e+006 1.000914883835e+006 1.000914883835e+006 1.000914883835e+006 1.000914883835e+006 1.000914883835e+006 1.000609922542e+006 1.000609922542e+006 1.000609922542e+006 1.000609922542e+006 1.000609922542e+006 1.000609922542e+006 1.000609922542e+006 1.000609922542e+006 1.000609922542e+006 1.000304961312e+006 1.000304961312e+006 1.000304961312e+006 1.000304961312e+006 1.000304961312e+006 1.000304961312e+006 1.000304961312e+006 1.000304961312e+006 1.000304961312e+006 1.000000000000e+006 1.000000000000e+006 1.000000000000e+006 1.000000000000e+006 1.000000000000e+006 1.000000000000e+006 1.000000000000e+006 1.000000000000e+006 1.000000000000e+006 
        </DataArray>
        <DataArray type="Float64" Name="MOLAR_FRACTION" format="ascii">