<?xml version="1.0"?>
<VTKFile type="UnstructuredGrid" version="0.1" byte_order="LittleEndian">
  <UnstructuredGrid>
    <Piece NumberOfPoints="909" NumberOfCells="800">
      <Points>
        <DataArray type="Float64" NumberOfComponents="3" format="ascii">
          0.000000000000e+000 0.000000000000e+000 0.000000000000e+000
          2.000000000000e+000 0.000000000000e+000 0.000000000000e+000
          2.000000000000e+000 2.500000000000e+000 0.000000000000e+000
          0.000000000000e+000 2.500000000000e+000 0.000000000000e+000
          2.000000000000e+000 5.000000000000e+000 0.000000000000e+000
          0.000000000000e+000 5.000000000000e+000 0.000000000000e+000
          2.000000000000e+000 7.500000000000e+000 0.000000000000e+000
          0.000000000000e+000 7.500000000000e+000 0.000000000000e+000
          2.000000000000e+000 1.000000000000e+001 0.000000000000e+000
          0.000000000000e+000 1.000000000000e+001 0.000000000000e+000
          2.000000000000e+000 1.250000000000e+001 0.000000000000e+000
          0.000000000000e+000 1.250000000000e+001 0.000000000000e+000
          2.000000000000e+000 1.500000000000e+001 0.000000000000e+000
          0.000000000000e+000 1.500000000000e+001 0.000000000000e+000
          2.000000000000e+000 1.750000000000e+001 0.000000000000e+000
          0.000000000000e+000 1.750000000000e+001 0.000000000000e+000
          2.000000000000e+000 2.000000000000e+001 0.000000000000e+000
          0.000000000000e+000 2.000000000000e+001 0.000000000000e+000
          4.000000000000e+000 0.000000000000e+000 0.000000000000e+000
          4.000000000000e+000 2.500000000000e+000 0.000000000000e+000
          4.000000000000e+000 5.000000000000e+000 0.000000000000e+000
          4.000000000000e+000 7.500000000000e+000 0.000000000000e+000
          4.000000000000e+000 1.000000000000e+001 0.000000000000e+000
          4.000000000000e+000 1.250000000000e+001 0.000000000000e+000
          4.000000000000e+000 1.500000000000e+001 0.000000000000e+000
          4.000000000000e+000 1.750000000000e+001 0.000000000000e+000
          4.000000000000e+000 2.000000000000e+001 0.000000000000e+000
          6.000000000000e+000 0.000000000000e+000 0.000000000000e+000
          6.000000000000e+000 2.500000000000e+000 0.000000000000e+000
          6.000000000000e+000 5.000000000000e+000 0.000000000000e+000
          6.000000000000e+000 7.500000000000e+000 0.000000000000e+000
          6.000000000000e+000 1.000000000000e+001 0.000000000000e+000
          6.000000000000e+000 1.250000000000e+001 0.000000000000e+000
          6.000000000000e+000 1.500000000000e+001 0.000000000000e+000
          6.000000000000e+000 1.750000000000e+001 0.000000000000e+000
          6.000000000000e+000 2.000000000000e+001 0.000000000000e+000
          8.000000000000e+000 0.000000000000e+000 0.000000000000e+000
          8.000000000000e+000 2.500000000000e+000 0.000000000000e+000
          8.000000000000e+000 5.000000000000e+000 0.000000000000e+000
          8.000000000000e+000 7.500000000000e+000 0.000000000000e+000
          8.000000000000e+000 1.000000000000e+001 0.000000000000e+000
          8.000000000000e+000 1.250000000000e+001 0.000000000000e+000
          8.000000000000e+000 1.500000000000e+001 0.000000000000e+000
          8.000000000000e+000 1.750000000000e+001 0.000000000000e+000
          8.000000000000e+000 2.000000000000e+001 0.000000000000e+000
          1.000000000000e+001 0.000000000000e+000 0.000000000000e+000
          1.000000000000e+001 2.500000000000e+000 0.000000000000e+000
          1.000000000000e+001 5.000000000000e+000 0.000000000000e+000
          1.000000000000e+001 7.500000000000e+000 0.000000000000e+000
          1.000000000000e+001 1.000000000000e+001 0.000000000000e+000
          1.000000000000e+001 1.250000000000e+001 0.000000000000e+000
          1.000000000000e+001 1.500000000000e+001 0.000000000000e+000
          1.000000000000e+001 1.750000000000e+001 0.000000000000e+000
          1.000000000000e+001 2.000000000000e+001 0.000000000000e+000
          1.200000000000e+001 0.000000000000e+000 0.000000000000e+000
          1.200000000000e+001 2.500000000000e+000 0.000000000000e+000
          1.200000000000e+001 5.000000000000e+000 0.000000000000e+000
          1.200000000000e+001 7.500000000000e+000 0.000000000000e+000
          1.200000000000e+001 1.000000000000e+001 0.000000000000e+000
          1.200000000000e+001 1.250000000000e+001 0.000000000000e+000
          1.200000000000e+001 1.500000000000e+001 0.000000000000e+000
          1.200000000000e+001 1.750000000000e+001 0.000000000000e+000
          1.200000000000e+001 2.000000000000e+001 0.000000000000e+000
          1.400000000000e+001 0.000000000000e+000 0.000000000000e+000
          1.400000000000e+001 2.500000000000e+000 0.000000000000e+000
          1.400000000000e+001 5.000000000000e+000 0.000000000000e+000
          1.400000000000e+001 7.500000000000e+000 0.000000000000e+000
          1.400000000000e+001 1.000000000000e+001 0.000000000000e+000
          1.400000000000e+001 1.250000000000e+001 0.000000000000e+000
          1.400000000000e+001 1.500000000000e+001 0.000000000000e+000
          1.400000000000e+001 1.750000000000e+001 0.000000000000e+000
          1.400000000000e+001 2.000000000000e+001 0.000000000000e+000
          1.600000000000e+001 0.000000000000e+000 0.000000000000e+000
          1.600000000000e+001 2.500000000000e+000 0.000000000000e+000
          1.600000000000e+001 5.000000000000e+000 0.000000000000e+000
          1.600000000000e+001 7.500000000000e+000 0.000000000000e+000
          1.600000000000e+001 1.000000000000e+001 0.000000000000e+000
          1.600000000000e+001 1.250000000000e+001 0.000000000000e+000
          1.600000000000e+001 1.500000000000e+001 0.000000000000e+000
          1.600000000000e+001 1.750000000000e+001 0.000000000000e+000
          1.600000000000e+001 2.000000000000e+001 0.000000000000e+000
          1.800000000000e+001 0.000000000000e+000 0.000000000000e+000
          1.800000000000e+001 2.500000000000e+000 0.000000000000e+000
          1.800000000000e+001 5.000000000000e+000 0.000000000000e+000
          1.800000000000e+001 7.500000000000e+000 0.000000000000e+000
          1.800000000000e+001 1.000000000000e+001 0.000000000000e+000
          1.800000000000e+001 1.250000000000e+001 0.000000000000e+000
          1.800000000000e+001 1.500000000000e+001 0.000000000000e+000
          1.800000000000e+001 1.750000000000e+001 0.000000000000e+000
          1.800000000000e+001 2.000000000000e+001 0.000000000000e+000
          2.000000000000e+001 0.000000000000e+000 0.000000000000e+000
          2.000000000000e+001 2.500000000000e+000 0.000000000000e+000
          2.000000000000e+001 5.000000000000e+000 0.000000000000e+000
          2.000000000000e+001 7.500000000000e+000 0.000000000000e+000
          2.000000000000e+001 1.000000000000e+001 0.000000000000e+000
          2.000000000000e+001 1.250000000000e+001 0.000000000000e+000
          2.000000000000e+001 1.500000000000e+001 0.000000000000e+000
          2.000000000000e+001 1.750000000000e+001 0.000000000000e+000
          2.000000000000e+001 2.000000000000e+001 0.000000000000e+000
          2.200000000000e+001 0.000000000000e+000 0.000000000000e+000
          2.200000000000e+001 2.500000000000e+000 0.000000000000e+000
          2.200000000000e+001 5.000000000000e+000 0.000000000000e+000
          2.200000000000e+001 7.500000000000e+000 0.000000000000e+000
          2.200000000000e+001 1.000000000000e+001 0.000000000000e+000
          2.200000000000e+001 1.250000000000e+001 0.000000000000e+000
          2.200000000000e+001 1.500000000000e+001 0.000000000000e+000
          2.200000000000e+001 1.750000000000e+001 0.000000000000e+000
          2.200000000000e+001 2.000000000000e+001 0.000000000000e+000
          2.400000000000e+001 0.000000000000e+000 0.000000000000e+000
          2.400000000000e+001 2.500000000000e+000 0.000000000000e+000
          2.400000000000e+001 5.000000000000e+000 0.000000000000e+000
          2.400000000000e+001 7.500000000000e+000 0.000000000000e+000
          2.400000000000e+001 1.000000000000e+001 0.000000000000e+000
          2.400000000000e+001 1.250000000000e+001 0.000000000000e+000
          2.400000000000e+001 1.500000000000e+001 0.000000000000e+000
          2.400000000000e+001 1.750000000000e+001 0.000000000000e+000
          2.400000000000e+001 2.000000000000e+001 0.000000000000e+000
          2.600000000000e+001 0.000000000000e+000 0.000000000000e+000
          2.600000000000e+001 2.500000000000e+000 0.000000000000e+000
          2.600000000000e+001 5.000000000000e+000 0.000000000000e+000
          2.600000000000e+001 7.500000000000e+000 0.000000000000e+000
          2.600000000000e+001 1.000000000000e+001 0.000000000000e+000
          2.600000000000e+001 1.250000000000e+001 0.000000000000e+000
          2.600000000000e+001 1.500000000000e+001 0.000000000000e+000
          2.600000000000e+001 1.750000000000e+001 0.000000000000e+000
          2.600000000000e+001 2.000000000000e+001 0.000000000000e+000
          2.800000000000e+001 0.000000000000e+000 0.000000000000e+000
          2.800000000000e+001 2.500000000000e+000 0.000000000000e+000
          2.800000000000e+001 5.000000000000e+000 0.000000000000e+000
          2.800000000000e+001 7.500000000000e+000 0.000000000000e+000
          2.800000000000e+001 1.000000000000e+001 0.000000000000e+000
          2.800000000000e+001 1.250000000000e+001 0.000000000000e+000
          2.800000000000e+001 1.500000000000e+001 0.000000000000e+000
          2.800000000000e+001 1.750000000000e+001 0.000000000000e+000
          2.800000000000e+001 2.000000000000e+001 0.000000000000e+000
          3.000000000000e+001 0.000000000000e+000 0.000000000000e+000
          3.000000000000e+001 2.500000000000e+000 0.000000000000e+000
          3.000000000000e+001 5.000000000000e+000 0.000000000000e+000
          3.000000000000e+001 7.500000000000e+000 0.000000000000e+000
[...]
      <PointData Scalars="LIQUID_PRESSURE">
        <DataArray type="Float64" Name="LIQUID_PRESSURE" format="ascii">
          1.146293820449e+006 1.146297960540e+006 1.146297960558e+006 1.146293820335e+006 1.146297960588e+006 1.146293820257e+006 1.146297960544e+006 1.146293820366e+006 1.146297960570e+006 1.146293820334e+006 1.146297960614e+006 1.146293820167e+006 1.146297960581e+006 1.146293820113e+006 1.146297960590e+006 1.146293820035e+006 1.146297960625e+006 1.146293819944e+006 1.146219934255e+006 1.146219934316e+006 1.146219934352e+006 1.146219934288e+006 1.146219934306e+006 1.146219934385e+006 1.146219934364e+006 1.146219934394e+006 1.146219934446e+006 1.146078316912e+006 1.146078316958e+006 1.146078316985e+006 1.146078316937e+006 1.146078316949e+006 1.146078316995e+006 1.146078316980e+006 1.146078316993e+006 1.146078317020e+006 1.145955499964e+006 1.145955499991e+006 1.145955500014e+006 1.145955499975e+006 1.145955499974e+006 1.145955499998e+006 1.145955499986e+006 1.145955499983e+006 1.145955499998e+006 1.145721036732e+006 1.145721036751e+006 1.145721036761e+006 1.145721036743e+006 1.145721036731e+006 1.145721036752e+006 1.145721036741e+006 1.145721036734e+006 1.145721036744e+006 1.145461675630e+006 1.145461675641e+006 1.145461675649e+006 1.145461675637e+006 1.145461675633e+006 1.145461675639e+006 1.145461675634e+006 1.145461675633e+006 1.145461675633e+006 1.145191272961e+006 1.145191272965e+006 1.145191272969e+006 1.145191272960e+006 1.145191272962e+006 1.145191272960e+006 1.145191272961e+006 1.145191272958e+006 1.145191272959e+006 1.144814610649e+006 1.144814610648e+006 1.144814610650e+006 1.144814610645e+006 1.144814610646e+006 1.144814610647e+006 1.144814610646e+006 1.144814610649e+006 1.144814610643e+006 1.144444445143e+006 1.144444445142e+006 1.144444445144e+006 1.144444445141e+006 1.144444445139e+006 1.144444445138e+006 1.144444445139e+006 1.144444445139e+006 1.144444445140e+006 1.143999422391e+006 1.143999422395e+006 1.143999422394e+006 1.143999422392e+006 1.143999422391e+006 1.143999422391e+006 1.143999422391e+006 1.143999422392e+006 1.143999422393e+006 1.143499962935e+006 1.143499962938e+006 1.143499962937e+006 1.143499962937e+006 1.143499962934e+006 1.143499962934e+006 1.143499962941e+006 1.143499962937e+006 1.143499962940e+006 1.142976987862e+006 1.142976987862e+006 1.142976987863e+006 1.142976987863e+006 1.142976987862e+006 1.142976987865e+006 1.142976987862e+006 1.142976987863e+006 1.142976987863e+006 1.142379711489e+006 1.142379711488e+006 1.142379711492e+006 1.142379711492e+006 1.142379711494e+006 1.142379711492e+006 1.142379711491e+006 1.142379711489e+006 1.142379711490e+006 1.141773579480e+006 1.141773579484e+006 1.141773579481e+006 1.141773579485e+006 1.141773579483e+006 1.141773579485e+006 1.141773579485e+006 1.141773579485e+006 1.141773579482e+006 1.141092403840e+006 1.141092403839e+006 1.141092403841e+006 1.141092403839e+006 1.141092403842e+006 1.141092403839e+006 1.141092403841e+006 1.141092403839e+006 1.141092403839e+006 1.140380060821e+006 1.140380060818e+006 1.140380060818e+006 1.140380060819e+006 1.140380060816e+006 1.140380060820e+006 1.140380060818e+006 1.140380060819e+006 1.140380060817e+006 1.139611674057e+006 1.139611674058e+006 1.139611674057e+006 1.139611674058e+006 1.139611674057e+006 1.139611674057e+006 1.139611674058e+006 1.139611674059e+006 1.139611674058e+006 1.138779050309e+006 1.138779050309e+006 1.138779050308e+006 1.138779050308e+006 1.138779050310e+006 1.138779050311e+006 1.138779050309e+006 1.138779050309e+006 1.138779050311e+006 1.137935550828e+006 1.137935550827e+006 1.137935550826e+006 1.137935550826e+006 1.137935550827e+006 1.137935550827e+006 1.137935550827e+006 1.137935550825e+006 1.137935550828e+006 1.137011708574e+006 1.137011708572e+006 1.137011708573e+006 1.137011708572e+006 1.137011708572e+006 1.137011708573e+006 1.137011708572e+006 1.137011708572e+006 1.137011708572e+006 1.136063593703e+006 1.136063593703e+006 1.136063593704e+006 1.136063593702e+006 1.136063593702e+006 1.136063593702e+006 1.136063593702e+006 1.136063593703e+006 1.136063593701e+006 1.135062317646e+006 1.135062317644e+006 1.135062317645e+006 1.135062317646e+006 1.135062317645e+006 1.135062317646e+006 1.135062317646e+006 1.135062317645e+006 1.135062317646e+006 1.134014080899e+006 1.134014080899e+006 1.134014080899e+006 1.134014080899e+006 1.134014080898e+006 1.134014080899e+006 1.134014080899e+006 1.134014080899e+006 1.134014080899e+006 1.132916791535e+006 1.132916791534e+006 1.132916791535e+006 1.132916791533e+006 1.132916791535e+006 1.132916791533e+006 1.132916791534e+006 1.132916791534e+006 1.132916791534e+006 1.131757362880e+006 1.131757362880e+006 1.131757362881e+006 1.131757362882e+006 1.131757362881e+006 1.131757362881e+006 1.131757362881e+006 1.131757362881e+006 1.131757362880e+006 1.130571550944e+006 1.130571550943e+006 1.130571550944e+006 1.130571550944e+006 1.130571550944e+006 1.130571550944e+006 1.130571550944e+006 1.130571550945e+006 1.130571550944e+006 1.129321833507e+006 1.129321833507e+006 1.129321833508e+006 1.129321833508e+006 1.129321833508e+006 1.129321833507e+006 1.129321833508e+006 1.129321833508e+006 1.129321833508e+006 1.128039139333e+006 1.128039139334e+006 1.128039139333e+006 1.128039139333e+006 1.128039139333e+006 1.128039139333e+006 1.128039139333e+006 1.128039139333e+006 1.128039139333e+006 1.126712382843e+006 1.126712382843e+006 1.126712382843e+006 1.126712382843e+006 1.126712382843e+006 1.126712382843e+006 1.126712382843e+006 1.126712382843e+006 1.126712382843e+006 1.125317091653e+006 1.125317091653e+006 1.125317091653e+006 1.125317091653e+006 1.125317091653e+006 1.125317091653e+006 1.125317091653e+006 1.125317091654e+006 1.125317091654e+006 1.123894470159e+006 1.123894470159e+006 1.123894470159e+006 1.123894470159e+006 1.123894470158e+006 1.123894470159e+006 1.123894470159e+006 1.123894470159e+006 1.123894470159e+006 1.122404905875e+006 1.122404905875e+006 1.122404905875e+006 1.122404905875e+006 1.122404905875e+006 1.122404905875e+006 1.122404905875e+006 1.122404905875e+006 1.122404905875e+006 1.120868432580e+006 1.120868432580e+006 1.120868432579e+006 1.120868432579e+006 1.120868432579e+006 1.120868432580e+006 1.120868432580e+006 1.120868432580e+006 1.120868432579e+006 1.119300066950e+006 1.119300066950e+006 1.119300066950e+006 1.119300066950e+006 1.119300066950e+006 1.119300066950e+006 1.119300066950e+006 1.119300066950e+006 1.119300066950e+006 1.117666425027e+006 1.117666425027e+006 1.117666425027e+006 1.117666425027e+006 1.117666425026e+006 1.117666425026e+006 1.117666425026e+006 1.117666425026e+006 1.117666425026e+006 1.115999242074e+006 1.115999242074e+006 1.115999242074e+006 1.115999242074e+006 1.115999242074e+006 1.115999242075e+006 1.115999242074e+006 1.115999242074e+006 1.115999242074e+006 1.114287699928e+006 1.114287699928e+006 1.114287699928e+006 1.114287699928e+006 1.114287699928e+006 1.114287699928e+006 1.114287699928e+006 1.114287699928e+006 1.114287699928e+006 1.112516942233e+006 1.112516942233e+006 1.112516942232e+006 1.112516942232e+006 1.112516942232e+006 1.112516942233e+006 1.112516942232e+006 1.112516942232e+006 1.112516942233e+006 1.110709034812e+006 1.110709034812e+006 1.110709034812e+006 1.110709034812e+006 1.110709034812e+006 1.110709034812e+006 1.110709034812e+006 1.110709034812e+006 1.110709034812e+006 1.108853676323e+006 1.108853676323e+006 1.108853676322e+006 1.108853676323e+006 1.108853676322e+006 1.108853676323e+006 1.108853676323e+006 1.108853676322e+006 1.108853676323e+006 1.106906007471e+006 1.106906007471e+006 1.106906007470e+006 1.106906007471e+006 1.106906007470e+006 1.106906007471e+006 1.106906007471e+006 1.106906007470e+006 1.106906007471e+006 1.104935914718e+006 1.104935914718e+006 1.104935914718e+006 1.104935914718e+006 1.104935914718e+006 1.104935914718e+006 1.104935914717e+006 1.104935914718e+006 1.104935914718e+006 1.102923376858e+006 1.102923376858e+006 1.102923376858e+006 1.102923376858e+006 1.102923376858e+006 1.102923376858e+006 1.102923376858e+006 1.102923376858e+006 1.102923376857e+006 1.100856145376e+006 1.100856145377e+006 1.100856145377e+006 1.100856145377e+006 1.100856145377e+006 1.100856145377e+006 1.100856145377e+006 1.100856145377e+006 1.100856145377e+006 1.098723787702e+006 1.098723787702e+006 1.098723787702e+006 1.098723787702e+006 1.098723787702e+006 1.098723787702e+006 1.098723787702e+006 1.098723787702e+006 1.098723787702e+006 1.096536346841e+006 1.096536346841e+006 1.096536346841e+006 1.096536346841e+006 1.096536346841e+006 1.096536346841e+006 1.096536346841e+006 1.096536346841e+006 1.096536346841e+006 1.094342120208e+006 1.094342120208e+006 1.094342120208e+006 1.094342120208e+006 1.094342120208e+006 1.094342120208e+006 1.094342120208e+006 1.094342120208e+006 1.094342120208e+006 1.092182693920e+006 1.092182693920e+006 1.092182693920e+006 1.092182693920e+006 1.092182693920e+006 1.092182693920e+006 1.092182693920e+006 1.092182693920e+006 1.092182693920e+006 1.089949501162e+006 1.089949501162e+006 1.089949501162e+006 1.089949501162e+006 1.089949501162e+006 1.089949501162e+006 1.089949501162e+006 1.089949501162e+006 1.089949501162e+006 1.087695501448e+006 1.087695501448e+006 1.087695501448e+006 1.087695501448e+006 1.087695501448e+006 1.087695501448e+006 1.087695501448e+006 1.087695501448e+006 1.087695501448e+006 1.085454035981e+006 1.085454035981e+006 1.085454035981e+006 1.085454035981e+006 1.085454035981e+006 1.085454035981e+006 1.085454035981e+006 1.085454035981e+006 1.085454035981e+006 1.083283664336e+006 1.083283664336e+006 1.083283664336e+006 1.083283664336e+006 1.083283664337e+006 1.083283664337e+006 1.083283664337e+006 1.083283664337e+006 1.083283664337e+006 1.081349502267e+006 1.081349502267e+006 1.081349502267e+006 1.081349502268e+006 1.081349502268e+006 1.081349502268e+006 1.081349502268e+006 1.081349502268e+006 1.081349502268e+006 1.079617401384e+006 1.079617401384e+006 1.079617401384e+006 1.079617401384e+006 1.079617401384e+006 1.079617401384e+006 1.079617401384e+006 1.079617401384e+006 1.079617401384e+006 1.077885390976e+006 1.077885390976e+006 1.077885390976e+006 1.077885390976e+006 1.077885390976e+006 1.077885390976e+006 1.077885390976e+006 1.077885390976e+006 1.077885390976e+006 1.076153465313e+006 1.076153465313e+006 1.076153465313e+006 1.076153465313e+006 1.076153465313e+006 1.076153465313e+006 1.076153465313e+006 1.076153465313e+006 1.076153465313e+006 1.074421620471e+006 1.074421620471e+006 1.074421620471e+006 1.074421620471e+006 1.074421620471e+006 1.074421620471e+006 1.074421620471e+006 1.074421620471e+006 1.074421620471e+006 1.072689853438e+006 1.072689853437e+006 1.072689853438e+006 1.072689853438e+006 1.072689853438e+006 1.072689853437e+006 1.072689853437e+006 1.072689853437e+006 1.072689853437e+006 1.070958161672e+006 1.070958161672e+006 1.070958161672e+006 1.070958161672e+006 1.070958161672e+006 1.070958161672e+006 1.070958161672e+006 1.070958161671e+006 1.070958161672e+006 1.069226542891e+006 1.069226542891e+006 1.069226542891e+006 1.069226542891e+006 1.069226542891e+006 1.069226542891e+006 1.069226542891e+006 1.069226542891e+006 1.069226542891e+006 1.067494994957e+006 1.067494994957e+006 1.067494994957e+006 1.067494994957e+006 1.067494994956e+006 1.067494994956e+006 1.067494994956e+006 1.067494994956e+006 1.067494994956e+006 1.065763515818e+006 1.065763515818e+006 1.065763515818e+006 1.065763515817e+006 1.065763515817e+006 1.065763515817e+006 1.065763515817e+006 1.065763515817e+006 1.065763515817e+006 1.064032103476e+006 1.064032103476e+006 1.064032103476e+006 1.064032103476e+006 1.064032103476e+006 1.064032103476e+006 1.064032103476e+006 1.064032103476e+006 1.064032103476e+006 1.062300755973e+006 1.062300755973e+006 1.062300755973e+006 1.062300755973e+006 1.062300755973e+006 1.062300755973e+006 1.062300755972e+006 1.062300755972e+006 1.062300755972e+006 1.060569471373e+006 1.060569471373e+006 1.060569471373e+006 1.060569471373e+006 1.060569471373e+006 1.060569471373e+006 1.060569471373e+006 1.060569471373e+006 1.060569471373e+006 1.058838247763e+006 1.058838247763e+006 1.058838247763e+006 1.058838247763e+006 1.058838247763e+006 1.058838247763e+006 1.058838247763e+006 1.058838247763e+006 1.058838247763e+006 1.057107083248e+006 1.057107083248e+006 1.057107083248e+006 1.057107083248e+006 1.057107083248e+006 1.057107083248e+006 1.057107083248e+006 1.057107083248e+006 1.057107083248e+006 1.055375975945e+006 1.055375975945e+006 1.055375975945e+006 1.055375975944e+006 1.055375975944e+006 1.055375975944e+006 1.055375975944e+006 1.055375975944e+006 1.055375975944e+006 1.053644923985e+006 1.053644923985e+006 1.053644923985e+006 1.053644923985e+006 1.053644923985e+006 1.053644923985e+006 1.053644923985e+006 1.053644923985e+006 1.053644923985e+006 1.051913925514e+006 1.051913925514e+006 1.051913925514e+006 1.051913925514e+006 1.051913925514e+006 1.051913925514e+006 1.051913925514e+006 1.051913925514e+006 1.051913925514e+006 1.050182978686e+006 1.050182978686e+006 1.050182978686e+006 1.050182978686e+006 1.050182978686e+006 1.050182978686e+006 1.050182978686e+006 1.050182978686e+006 1.050182978686e+006 1.048452081670e+006 1.048452081670e+006 1.048452081670e+006 1.048452081670e+006 1.048452081670e+006 1.048452081670e+006 1.048452081670e+006 1.048452081669e+006 1.048452081669e+006 1.046721232641e+006 1.046721232641e+006 1.046721232641e+006 1.046721232641e+006 1.046721232641e+006 1.046721232640e+006 1.046721232640e+006 1.046721232640e+006 1.046721232640e+006 1.044990429786e+006 1.044990429787e+006 1.044990429787e+006 1.044990429786e+006 1.044990429786e+006 1.044990429786e+006 1.044990429786e+006 1.044990429786e+006 1.044990429786e+006 1.043259671304e+006 1.043259671304e+006 1.043259671304e+006 1.043259671304e+006 1.043259671304e+006 1.043259671303e+006 1.043259671303e+006 1.043259671303e+006 1.043259671303e+006 1.041528955398e+006 1.041528955398e+006 1.041528955398e+006 1.041528955398e+006 1.041528955398e+006 1.041528955398e+006 1.041528955398e+006 1.041528955397e+006 1.041528955397e+006 1.039798280283e+006 1.039798280283e+006 1.039798280283e+006 1.039798280283e+006 1.039798280283e+006 1.039798280282e+006 1.039798280282e+006 1.039798280282e+006 1.039798280282e+006 1.038067644181e+006 1.038067644181e+006 1.038067644181e+006 1.038067644181e+006 1.038067644181e+006 1.038067644180e+006 1.038067644180e+006 1.038067644180e+006 1.038067644180e+006 1.036337045321e+006 1.036337045321e+006 1.036337045321e+006 1.036337045321e+006 1.036337045321e+006 1.036337045321e+006 1.036337045321e+006 1.036337045321e+006 1.036337045321e+006 1.034606481942e+006 1.034606481942e+006 1.034606481943e+006 1.034606481942e+006 1.034606481942e+006 1.034606481942e+006 1.034606481942e+006 1.034606481942e+006 1.034606481942e+006 1.032875952288e+006 1.032875952288e+006 1.032875952288e+006 1.032875952288e+006 1.032875952288e+006 1.032875952288e+006 1.032875952288e+006 1.032875952288e+006 1.032875952288e+006 1.031145454609e+006 1.031145454609e+006 1.031145454609e+006 1.031145454609e+006 1.031145454609e+006 1.031145454609e+006 1.031145454609e+006 1.031145454609e+006 1.031145454608e+006 1.029414987162e+006 1.029414987162e+006 1.029414987162e+006 1.029414987162e+006 1.029414987162e+006 1.029414987162e+006 1.029414987162e+006 1.029414987162e+006 1.029414987162e+006 1.027684548210e+006 1.027684548210e+006 1.027684548210e+006 1.027684548210e+006 1.027684548210e+006 1.027684548210e+006 1.027684548210e+006 1.027684548210e+006 1.027684548210e+006 1.025954136023e+006 1.025954136023e+006 1.025954136023e+006 1.025954136023e+006 1.025954136023e+006 1.025954136023e+006 1.025954136023e+006 1.025954136023e+006 1.025954136023e+006 1.024223748872e+006 1.024223748872e+006 1.024223748872e+006 1.024223748872e+006 1.024223748872e+006 1.024223748872e+006 1.024223748872e+006 1.024223748872e+006 1.024223748872e+006 1.022493385038e+006 1.022493385038e+006 1.022493385038e+006 1.022493385038e+006 1.022493385038e+006 1.022493385038e+006 1.022493385038e+006 1.022493385038e+006 1.022493385038e+006 1.020763042801e+006 1.020763042801e+006 1.020763042801e+006 1.020763042801e+006 1.020763042802e+006 1.020763042802e+006 1.020763042802e+006 1.020763042802e+006 1.020763042802e+006 1.019032720451e+006 1.019032720451e+006 1.019032720451e+006 1.019032720451e+006 1.019032720451e+006 1.019032720451e+006 1.019032720451e+006 1.019032720451e+006 1.019032720451e+006 1.017302416275e+006 1.017302416275e+006 1.017302416275e+006 1.017302416275e+006 1.017302416275e+006 1.017302416275e+006 1.017302416275e+006 1.017302416275e+006 1.017302416275e+006 1.015572128570e+006 1.015572128570e+006 1.015572128570e+006 1.015572128570e+006 1.015572128570e+006 1.015572128570e+006 1.015572128570e+006 1.015572128570e+006 1.015572128570e+006 1.013841855630e+006 1.013841855630e+006 1.013841855630e+006 1.013841855630e+006 1.013841855630e+006 1.013841855630e+006 1.013841855630e+006 1.013841855630e+006 1.013841855630e+006 1.012111595756e+006 1.012111595756e+006 1.012111595756e+006 1.012111595756e+006 1.012111595756e+006 1.012111595756e+006 1.012111595756e+006 1.012111595756e+006 1.012111595756e+006 1.010381347249e+006 1.010381347249e+006 1.010381347249e+006 1.010381347249e+006 1.010381347249e+006 1.010381347249e+006 1.010381347249e+006 1.010381347249e+006 1.010381347249e+006 1.008651108413e+006 1.008651108413e+006 1.008651108413e+006 1.008651108413e+006 1.008651108413e+006 1.008651108413e+006 1.008651108413e+006 1.008651108413e+006 1.008651108413e+006 1.006920877553e+006 1.006920877553e+006 1.006920877553e+006 1.006920877553e+006 1.006920877553e+006 1.006920877553e+006 1.006920877553e+006 1.006920877553e+006 1.006920877553e+006 1.005190652974e+006 1.005190652974e+006 1.005190652974e+006 1.005190652974e+006 1.005190652974e+006 1.005190652974e+006 1.005190652974e+006 1.005190652974e+006 1.005190652974e+006 1.003460432984e+006 1.003460432984e+006 1.003460432984e+006 1.003460432984e+006 1.003460432984e+006 1.003460432984e+006 1.003460432984e+006 1.003460432984e+006 1.003460432984e+006 1.001730215890e+006 1.001730215890e+006 1.001730215890e+006 1.001730215890e+006 1.001730215890e+006 1.001730215890e+006 1.001730215890e+006 1.001730215890e+006 1.001730215890e+006 1.000000000000e+006 1.000000000000e+006 1.000000000000e+006 1.000000000000e+006 1.000000000000e+006 1.000000000000e+006 1.000000000000e+006 1.000000000000e+006 1.000000000000e+006 
        </DataArray>
        <DataArray type="Float64" Name="MOLAR_FRACTION" format="ascii">