<?xml version="1.0"?>
<VTKFile type="UnstructuredGrid" version="0.1" byte_order="LittleEndian">
  <UnstructuredGrid>
    <Piece NumberOfPoints="909" NumberOfCells="800">
      <Points>
        <DataArray type="Float64" NumberOfComponents="3" format="ascii">
          0.000000000000e+000 0.000000000000e+000 0.000000000000e+000
          2.000000000000e+000 0.000000000000e+000 0.000000000000e+000
          2.000000000000e+000 2.500000000000e+000 0.000000000000e+000
          0.000000000000e+000 2.500000000000e+000 0.000000000000e+000
          2.000000000000e+000 5.000000000000e+000 0.000000000000e+000
          0.000000000000e+000 5.000000000000e+000 0.000000000000e+000
          2.000000000000e+000 7.500000000000e+000 0.000000000000e+000
          0.000000000000e+000 7.500000000000e+000 0.000000000000e+000
          2.000000000000e+000 1.000000000000e+001 0.000000000000e+000
          0.000000000000e+000 1.000000000000e+001 0.000000000000e+000
          2.000000000000e+000 1.250000000000e+001 0.000000000000e+000
          0.000000000000e+000 1.250000000000e+001 0.000000000000e+000
          2.000000000000e+000 1.500000000000e+001 0.000000000000e+000
          0.000000000000e+000 1.500000000000e+001 0.000000000000e+000
          2.000000000000e+000 1.750000000000e+001 0.000000000000e+000
          0.000000000000e+000 1.750000000000e+001 0.000000000000e+000
          2.000000000000e+000 2.000000000000e+001 0.000000000000e+000
          0.000000000000e+000 2.000000000000e+001 0.000000000000e+000
          4.000000000000e+000 0.000000000000e+000 0.000000000000e+000
          4.000000000000e+000 2.500000000000e+000 0.000000000000e+000
          4.000000000000e+000 5.000000000000e+000 0.000000000000e+000
          4.000000000000e+000 7.500000000000e+000 0.000000000000e+000
          4.000000000000e+000 1.000000000000e+001 0.000000000000e+000
          4.000000000000e+000 1.250000000000e+001 0.000000000000e+000
          4.000000000000e+000 1.500000000000e+001 0.000000000000e+000
          4.000000000000e+000 1.750000000000e+001 0.000000000000e+000
          4.000000000000e+000 2.000000000000e+001 0.000000000000e+000
          6.000000000000e+000 0.000000000000e+000 0.000000000000e+000
          6.000000000000e+000 2.500000000000e+000 0.000000000000e+000
          6.000000000000e+000 5.000000000000e+000 0.000000000000e+000
          6.000000000000e+000 7.500000000000e+000 0.000000000000e+000
          6.000000000000e+000 1.000000000000e+001 0.000000000000e+000
          6.000000000000e+000 1.250000000000e+001 0.000000000000e+000
          6.000000000000e+000 1.500000000000e+001 0.000000000000e+000
          6.000000000000e+000 1.750000000000e+001 0.000000000000e+000
          6.000000000000e+000 2.000000000000e+001 0.000000000000e+000
          8.000000000000e+000 0.000000000000e+000 0.000000000000e+000
          8.000000000000e+000 2.500000000000e+000 0.000000000000e+000
          8.000000000000e+000 5.000000000000e+000 0.000000000000e+000
          8.000000000000e+000 7.500000000000e+000 0.000000000000e+000
          8.000000000000e+000 1.000000000000e+001 0.000000000000e+000
          8.000000000000e+000 1.250000000000e+001 0.000000000000e+000
          8.000000000000e+000 1.500000000000e+001 0.000000000000e+000
          8.000000000000e+000 1.750000000000e+001 0.000000000000e+000
          8.000000000000e+000 2.000000000000e+001 0.000000000000e+000
          1.000000000000e+001 0.000000000000e+000 0.000000000000e+000
          1.000000000000e+001 2.500000000000e+000 0.000000000000e+000
          1.000000000000e+001 5.000000000000e+000 0.000000000000e+000
          1.000000000000e+001 7.500000000000e+000 0.000000000000e+000
          1.000000000000e+001 1.000000000000e+001 0.000000000000e+000
          1.000000000000e+001 1.250000000000e+001 0.000000000000e+000
          1.000000000000e+001 1.500000000000e+001 0.000000000000e+000
          1.000000000000e+001 1.750000000000e+001 0.000000000000e+000
          1.000000000000e+001 2.000000000000e+001 0.000000000000e+000
          1.200000000000e+001 0.000000000000e+000 0.000000000000e+000
          1.200000000000e+001 2.500000000000e+000 0.000000000000e+000
          1.200000000000e+001 5.000000000000e+000 0.000000000000e+000
          1.200000000000e+001 7.500000000000e+000 0.000000000000e+000
          1.200000000000e+001 1.000000000000e+001 0.000000000000e+000
          1.200000000000e+001 1.250000000000e+001 0.000000000000e+000
          1.200000000000e+001 1.500000000000e+001 0.000000000000e+000
          1.200000000000e+001 1.750000000000e+001 0.000000000000e+000
          1.200000000000e+001 2.000000000000e+001 0.000000000000e+000
          1.400000000000e+001 0.000000000000e+000 0.000000000000e+000
          1.400000000000e+001 2.500000000000e+000 0.000000000000e+000
          1.400000000000e+001 5.000000000000e+000 0.000000000000e+000
          1.400000000000e+001 7.500000000000e+000 0.000000000000e+000
          1.400000000000e+001 1.000000000000e+001 0.000000000000e+000
          1.400000000000e+001 1.250000000000e+001 0.000000000000e+000
          1.400000000000e+001 1.500000000000e+001 0.000000000000e+000
          1.400000000000e+001 1.750000000000e+001 0.000000000000e+000
          1.400000000000e+001 2.000000000000e+001 0.000000000000e+000
          1.600000000000e+001 0.000000000000e+000 0.000000000000e+000
          1.600000000000e+001 2.500000000000e+000 0.000000000000e+000
          1.600000000000e+001 5.000000000000e+000 0.000000000000e+000
          1.600000000000e+001 7.500000000000e+000 0.000000000000e+000
          1.600000000000e+001 1.000000000000e+001 0.000000000000e+000
          1.600000000000e+001 1.250000000000e+001 0.000000000000e+000
          1.600000000000e+001 1.500000000000e+001 0.000000000000e+000
          1.600000000000e+001 1.750000000000e+001 0.000000000000e+000
          1.600000000000e+001 2.000000000000e+001 0.000000000000e+000
          1.800000000000e+001 0.000000000000e+000 0.000000000000e+000
          1.800000000000e+001 2.500000000000e+000 0.000000000000e+000
          1.800000000000e+001 5.000000000000e+000 0.000000000000e+000
          1.800000000000e+001 7.500000000000e+000 0.000000000000e+000
          1.800000000000e+001 1.000000000000e+001 0.000000000000e+000
          1.800000000000e+001 1.250000000000e+001 0.000000000000e+000
          1.800000000000e+001 1.500000000000e+001 0.000000000000e+000
          1.800000000000e+001 1.750000000000e+001 0.000000000000e+000
          1.800000000000e+001 2.000000000000e+001 0.000000000000e+000
          2.000000000000e+001 0.000000000000e+000 0.000000000000e+000
          2.000000000000e+001 2.500000000000e+000 0.000000000000e+000
          2.000000000000e+001 5.000000000000e+000 0.000000000000e+000
          2.000000000000e+001 7.500000000000e+000 0.000000000000e+000
          2.000000000000e+001 1.000000000000e+001 0.000000000000e+000
          2.000000000000e+001 1.250000000000e+001 0.000000000000e+000
          2.000000000000e+001 1.500000000000e+001 0.000000000000e+000
          2.000000000000e+001 1.750000000000e+001 0.000000000000e+000
          2.000000000000e+001 2.000000000000e+001 0.000000000000e+000
          2.200000000000e+001 0.000000000000e+000 0.000000000000e+000
          2.200000000000e+001 2.500000000000e+000 0.000000000000e+000
          2.200000000000e+001 5.000000000000e+000 0.000000000000e+000
          2.200000000000e+001 7.500000000000e+000 0.000000000000e+000
          2.200000000000e+001 1.000000000000e+001 0.000000000000e+000
          2.200000000000e+001 1.250000000000e+001 0.000000000000e+000
          2.200000000000e+001 1.500000000000e+001 0.000000000000e+000
          2.200000000000e+001 1.750000000000e+001 0.000000000000e+000
          2.200000000000e+001 2.000000000000e+001 0.000000000000e+000
          2.400000000000e+001 0.000000000000e+000 0.000000000000e+000
          2.400000000000e+001 2.500000000000e+000 0.000000000000e+000
          2.400000000000e+001 5.000000000000e+000 0.000000000000e+000
          2.400000000000e+001 7.500000000000e+000 0.000000000000e+000
          2.400000000000e+001 1.000000000000e+001 0.000000000000e+000
          2.400000000000e+001 1.250000000000e+001 0.000000000000e+000
          2.400000000000e+001 1.500000000000e+001 0.000000000000e+000
          2.400000000000e+001 1.750000000000e+001 0.000000000000e+000
          2.400000000000e+001 2.000000000000e+001 0.000000000000e+000
          2.600000000000e+001 0.000000000000e+000 0.000000000000e+000
          2.600000000000e+001 2.500000000000e+000 0.000000000000e+000
          2.600000000000e+001 5.000000000000e+000 0.000000000000e+000
          2.600000000000e+001 7.500000000000e+000 0.000000000000e+000
          2.600000000000e+001 1.000000000000e+001 0.000000000000e+000
          2.600000000000e+001 1.250000000000e+001 0.000000000000e+000
          2.600000000000e+001 1.500000000000e+001 0.000000000000e+000
          2.600000000000e+001 1.750000000000e+001 0.000000000000e+000
          2.600000000000e+001 2.000000000000e+001 0.000000000000e+000
          2.800000000000e+001 0.000000000000e+000 0.000000000000e+000
          2.800000000000e+001 2.500000000000e+000 0.000000000000e+000
          2.800000000000e+001 5.000000000000e+000 0.000000000000e+000
          2.800000000000e+001 7.500000000000e+000 0.000000000000e+000
          2.800000000000e+001 1.000000000000e+001 0.000000000000e+000
          2.800000000000e+001 1.250000000000e+001 0.000000000000e+000
          2.800000000000e+001 1.500000000000e+001 0.000000000000e+000
          2.800000000000e+001 1.750000000000e+001 0.000000000000e+000
          2.800000000000e+001 2.000000000000e+001 0.000000000000e+000
          3.000000000000e+001 0.000000000000e+000 0.000000000000e+000
          3.000000000000e+001 2.500000000000e+000 0.000000000000e+000
          3.000000000000e+001 5.000000000000e+000 0.000000000000e+000
          3.000000000000e+001 7.500000000000e+000 0.000000000000e+000
[...]
      <PointData Scalars="LIQUID_PRESSURE">
        <DataArray type="Float64" Name="LIQUID_PRESSURE" format="ascii">
          1.017229781907e+006 1.017241051918e+006 1.017241051927e+006 1.017229781839e+006 1.017241051950e+006 1.017229781786e+006 1.017241051912e+006 1.017229781852e+006 1.017241051926e+006 1.017229781840e+006 1.017241051966e+006 1.017229781744e+006 1.017241051959e+006 1.017229781752e+006 1.017241051976e+006 1.017229781723e+006 1.017241051998e+006 1.017229781658e+006 1.017232822247e+006 1.017232822277e+006 1.017232822287e+006 1.017232822257e+006 1.017232822258e+006 1.017232822287e+006 1.017232822267e+006 1.017232822283e+006 1.017232822303e+006 1.017191952789e+006 1.017191952805e+006 1.017191952810e+006 1.017191952791e+006 1.017191952793e+006 1.017191952803e+006 1.017191952797e+006 1.017191952792e+006 1.017191952802e+006 1.017196506720e+006 1.017196506731e+006 1.017196506730e+006 1.017196506715e+006 1.017196506710e+006 1.017196506719e+006 1.017196506713e+006 1.017196506707e+006 1.017196506717e+006 1.017151652127e+006 1.017151652133e+006 1.017151652127e+006 1.017151652123e+006 1.017151652119e+006 1.017151652128e+006 1.017151652119e+006 1.017151652120e+006 1.017151652131e+006 1.017104002431e+006 1.017104002430e+006 1.017104002434e+006 1.017104002433e+006 1.017104002432e+006 1.017104002430e+006 1.017104002430e+006 1.017104002436e+006 1.017104002438e+006 1.017086064302e+006 1.017086064291e+006 1.017086064294e+006 1.017086064297e+006 1.017086064293e+006 1.017086064292e+006 1.017086064296e+006 1.017086064297e+006 1.017086064304e+006 1.017007977392e+006 1.017007977384e+006 1.017007977388e+006 1.017007977390e+006 1.017007977383e+006 1.017007977383e+006 1.017007977393e+006 1.017007977396e+006 1.017007977392e+006 1.016966987440e+006 1.016966987435e+006 1.016966987438e+006 1.016966987435e+006 1.016966987432e+006 1.016966987433e+006 1.016966987442e+006 1.016966987443e+006 1.016966987443e+006 1.016902453022e+006 1.016902453032e+006 1.016902453030e+006 1.016902453027e+006 1.016902453026e+006 1.016902453026e+006 1.016902453036e+006 1.016902453037e+006 1.016902453033e+006 1.016821861584e+006 1.016821861593e+006 1.016821861588e+006 1.016821861588e+006 1.016821861583e+006 1.016821861579e+006 1.016821861596e+006 1.016821861598e+006 1.016821861594e+006 1.016761370139e+006 1.016761370134e+006 1.016761370142e+006 1.016761370132e+006 1.016761370131e+006 1.016761370138e+006 1.016761370136e+006 1.016761370140e+006 1.016761370146e+006 1.016660598047e+006 1.016660598037e+006 1.016660598033e+006 1.016660598036e+006 1.016660598033e+006 1.016660598036e+006 1.016660598038e+006 1.016660598040e+006 1.016660598042e+006 1.016587448159e+006 1.016587448156e+006 1.016587448146e+006 1.016587448156e+006 1.016587448151e+006 1.016587448157e+006 1.016587448155e+006 1.016587448158e+006 1.016587448157e+006 1.016482743352e+006 1.016482743352e+006 1.016482743350e+006 1.016482743349e+006 1.016482743351e+006 1.016482743348e+006 1.016482743351e+006 1.016482743349e+006 1.016482743353e+006 1.016382557138e+006 1.016382557134e+006 1.016382557131e+006 1.016382557131e+006 1.016382557137e+006 1.016382557131e+006 1.016382557138e+006 1.016382557136e+006 1.016382557140e+006 1.016284666337e+006 1.016284666347e+006 1.016284666338e+006 1.016284666342e+006 1.016284666349e+006 1.016284666347e+006 1.016284666349e+006 1.016284666345e+006 1.016284666347e+006 1.016152844562e+006 1.016152844562e+006 1.016152844560e+006 1.016152844554e+006 1.016152844560e+006 1.016152844562e+006 1.016152844558e+006 1.016152844559e+006 1.016152844561e+006 1.016054419901e+006 1.016054419890e+006 1.016054419892e+006 1.016054419897e+006 1.016054419891e+006 1.016054419884e+006 1.016054419885e+006 1.016054419888e+006 1.016054419893e+006 1.015914639233e+006 1.015914639230e+006 1.015914639231e+006 1.015914639240e+006 1.015914639228e+006 1.015914639230e+006 1.015914639227e+006 1.015914639222e+006 1.015914639231e+006 1.015790808787e+006 1.015790808800e+006 1.015790808801e+006 1.015790808797e+006 1.015790808796e+006 1.015790808792e+006 1.015790808789e+006 1.015790808788e+006 1.015790808784e+006 1.015653888274e+006 1.015653888277e+006 1.015653888284e+006 1.015653888282e+006 1.015653888279e+006 1.015653888280e+006 1.015653888273e+006 1.015653888270e+006 1.015653888270e+006 1.015508759176e+006 1.015508759172e+006 1.015508759176e+006 1.015508759177e+006 1.015508759178e+006 1.015508759176e+006 1.015508759175e+006 1.015508759169e+006 1.015508759163e+006 1.015370377008e+006 1.015370377013e+006 1.015370377009e+006 1.015370377011e+006 1.015370377011e+006 1.015370377010e+006 1.015370377011e+006 1.015370377007e+006 1.015370377002e+006 1.015205489644e+006 1.015205489653e+006 1.015205489652e+006 1.015205489651e+006 1.015205489649e+006 1.015205489647e+006 1.015205489646e+006 1.015205489645e+006 1.015205489640e+006 1.015059004372e+006 1.015059004374e+006 1.015059004377e+006 1.015059004376e+006 1.015059004374e+006 1.015059004374e+006 1.015059004373e+006 1.015059004376e+006 1.015059004372e+006 1.014892070907e+006 1.014892070903e+006 1.014892070903e+006 1.014892070905e+006 1.014892070904e+006 1.014892070897e+006 1.014892070904e+006 1.014892070907e+006 1.014892070912e+006 1.014718903359e+006 1.014718903354e+006 1.014718903346e+006 1.014718903351e+006 1.014718903351e+006 1.014718903350e+006 1.014718903355e+006 1.014718903358e+006 1.014718903367e+006 1.014560085738e+006 1.014560085734e+006 1.014560085730e+006 1.014560085734e+006 1.014560085735e+006 1.014560085733e+006 1.014560085732e+006 1.014560085735e+006 1.014560085737e+006 1.014367834336e+006 1.014367834335e+006 1.014367834335e+006 1.014367834340e+006 1.014367834337e+006 1.014367834334e+006 1.014367834336e+006 1.014367834333e+006 1.014367834332e+006 1.014193813026e+006 1.014193813027e+006 1.014193813030e+006 1.014193813033e+006 1.014193813034e+006 1.014193813029e+006 1.014193813032e+006 1.014193813029e+006 1.014193813030e+006 1.014010772260e+006 1.014010772254e+006 1.014010772255e+006 1.014010772259e+006 1.014010772261e+006 1.014010772259e+006 1.014010772255e+006 1.014010772248e+006 1.014010772249e+006 1.013807043566e+006 1.013807043563e+006 1.013807043563e+006 1.013807043566e+006 1.013807043567e+006 1.013807043564e+006 1.013807043561e+006 1.013807043559e+006 1.013807043555e+006 1.013626460032e+006 1.013626460032e+006 1.013626460031e+006 1.013626460034e+006 1.013626460037e+006 1.013626460031e+006 1.013626460033e+006 1.013626460027e+006 1.013626460028e+006 1.013419240442e+006 1.013419240435e+006 1.013419240435e+006 1.013419240435e+006 1.013419240438e+006 1.013419240441e+006 1.013419240437e+006 1.013419240435e+006 1.013419240431e+006 1.013213943495e+006 1.013213943497e+006 1.013213943495e+006 1.013213943496e+006 1.013213943498e+006 1.013213943498e+006 1.013213943496e+006 1.013213943492e+006 1.013213943489e+006 1.013014964093e+006 1.013014964100e+006 1.013014964102e+006 1.013014964101e+006 1.013014964100e+006 1.013014964100e+006 1.013014964101e+006 1.013014964093e+006 1.013014964087e+006 1.012796225376e+006 1.012796225375e+006 1.012796225375e+006 1.012796225379e+006 1.012796225380e+006 1.012796225377e+006 1.012796225374e+006 1.012796225370e+006 1.012796225369e+006 1.012581311100e+006 1.012581311095e+006 1.012581311096e+006 1.012581311096e+006 1.012581311099e+006 1.012581311096e+006 1.012581311098e+006 1.012581311090e+006 1.012581311093e+006 1.012373430399e+006 1.012373430401e+006 1.012373430398e+006 1.012373430400e+006 1.012373430400e+006 1.012373430398e+006 1.012373430400e+006 1.012373430397e+006 1.012373430397e+006 1.012140118809e+006 1.012140118810e+006 1.012140118809e+006 1.012140118811e+006 1.012140118809e+006 1.012140118806e+006 1.012140118805e+006 1.012140118806e+006 1.012140118807e+006 1.011919549767e+006 1.011919549767e+006 1.011919549769e+006 1.011919549769e+006 1.011919549769e+006 1.011919549763e+006 1.011919549768e+006 1.011919549764e+006 1.011919549766e+006 1.011692966360e+006 1.011692966364e+006 1.011692966362e+006 1.011692966361e+006 1.011692966361e+006 1.011692966359e+006 1.011692966357e+006 1.011692966362e+006 1.011692966363e+006 1.011458896084e+006 1.011458896089e+006 1.011458896089e+006 1.011458896088e+006 1.011458896086e+006 1.011458896084e+006 1.011458896083e+006 1.011458896084e+006 1.011458896083e+006 1.011234564105e+006 1.011234564110e+006 1.011234564109e+006 1.011234564111e+006 1.011234564108e+006 1.011234564105e+006 1.011234564105e+006 1.011234564105e+006 1.011234564105e+006 1.010990582284e+006 1.010990582286e+006 1.010990582288e+006 1.010990582288e+006 1.010990582284e+006 1.010990582286e+006 1.010990582289e+006 1.010990582287e+006 1.010990582288e+006 1.010743291352e+006 1.010743291355e+006 1.010743291355e+006 1.010743291355e+006 1.010743291356e+006 1.010743291355e+006 1.010743291358e+006 1.010743291358e+006 1.010743291355e+006 1.010521169964e+006 1.010521169967e+006 1.010521169967e+006 1.010521169966e+006 1.010521169970e+006 1.010521169969e+006 1.010521169971e+006 1.010521169970e+006 1.010521169971e+006 1.010267494121e+006 1.010267494123e+006 1.010267494126e+006 1.010267494128e+006 1.010267494129e+006 1.010267494128e+006 1.010267494129e+006 1.010267494128e+006 1.010267494129e+006 1.010024336977e+006 1.010024336976e+006 1.010024336980e+006 1.010024336980e+006 1.010024336979e+006 1.010024336981e+006 1.010024336981e+006 1.010024336981e+006 1.010024336979e+006 1.009779173655e+006 1.009779173652e+006 1.009779173654e+006 1.009779173654e+006 1.009779173652e+006 1.009779173655e+006 1.009779173657e+006 1.009779173655e+006 1.009779173652e+006 1.009523778155e+006 1.009523778161e+006 1.009523778163e+006 1.009523778160e+006 1.009523778159e+006 1.009523778161e+006 1.009523778160e+006 1.009523778159e+006 1.009523778159e+006 1.009277617030e+006 1.009277617035e+006 1.009277617038e+006 1.009277617039e+006 1.009277617039e+006 1.009277617036e+006 1.009277617036e+006 1.009277617035e+006 1.009277617038e+006 1.009031099766e+006 1.009031099767e+006 1.009031099769e+006 1.009031099771e+006 1.009031099770e+006 1.009031099769e+006 1.009031099769e+006 1.009031099770e+006 1.009031099768e+006 1.008772722257e+006 1.008772722261e+006 1.008772722264e+006 1.008772722262e+006 1.008772722263e+006 1.008772722261e+006 1.008772722264e+006 1.008772722263e+006 1.008772722263e+006 1.008516105607e+006 1.008516105609e+006 1.008516105609e+006 1.008516105608e+006 1.008516105609e+006 1.008516105610e+006 1.008516105608e+006 1.008516105609e+006 1.008516105611e+006 1.008268473302e+006 1.008268473304e+006 1.008268473304e+006 1.008268473303e+006 1.008268473303e+006 1.008268473306e+006 1.008268473304e+006 1.008268473304e+006 1.008268473302e+006 1.008023862951e+006 1.008023862952e+006 1.008023862952e+006 1.008023862953e+006 1.008023862953e+006 1.008023862954e+006 1.008023862956e+006 1.008023862954e+006 1.008023862951e+006 1.007729069870e+006 1.007729069869e+006 1.007729069870e+006 1.007729069869e+006 1.007729069868e+006 1.007729069869e+006 1.007729069869e+006 1.007729069868e+006 1.007729069869e+006 1.007501069054e+006 1.007501069057e+006 1.007501069056e+006 1.007501069060e+006 1.007501069064e+006 1.007501069065e+006 1.007501069065e+006 1.007501069067e+006 1.007501069065e+006 1.007264024452e+006 1.007264024454e+006 1.007264024456e+006 1.007264024450e+006 1.007264024447e+006 1.007264024446e+006 1.007264024445e+006 1.007264024447e+006 1.007264024444e+006 1.006987953322e+006 1.006987953324e+006 1.006987953328e+006 1.006987953338e+006 1.006987953344e+006 1.006987953347e+006 1.006987953348e+006 1.006987953352e+006 1.006987953350e+006 1.006680743285e+006 1.006680743284e+006 1.006680743286e+006 1.006680743268e+006 1.006680743262e+006 1.006680743256e+006 1.006680743255e+006 1.006680743255e+006 1.006680743253e+006 1.006550707340e+006 1.006550707344e+006 1.006550707342e+006 1.006550707365e+006 1.006550707370e+006 1.006550707373e+006 1.006550707375e+006 1.006550707378e+006 1.006550707378e+006 1.006138159158e+006 1.006138159153e+006 1.006138159161e+006 1.006138159141e+006 1.006138159137e+006 1.006138159135e+006 1.006138159132e+006 1.006138159128e+006 1.006138159128e+006 1.006040750109e+006 1.006040750113e+006 1.006040750114e+006 1.006040750120e+006 1.006040750121e+006 1.006040750123e+006 1.006040750124e+006 1.006040750122e+006 1.006040750123e+006 1.005681063139e+006 1.005681063146e+006 1.005681063140e+006 1.005681063151e+006 1.005681063148e+006 1.005681063148e+006 1.005681063149e+006 1.005681063150e+006 1.005681063150e+006 1.005453739698e+006 1.005453739700e+006 1.005453739695e+006 1.005453739700e+006 1.005453739695e+006 1.005453739697e+006 1.005453739697e+006 1.005453739697e+006 1.005453739699e+006 1.005228484820e+006 1.005228484822e+006 1.005228484820e+006 1.005228484823e+006 1.005228484820e+006 1.005228484821e+006 1.005228484820e+006 1.005228484822e+006 1.005228484821e+006 1.004967332624e+006 1.004967332621e+006 1.004967332622e+006 1.004967332622e+006 1.004967332622e+006 1.004967332623e+006 1.004967332624e+006 1.004967332623e+006 1.004967332626e+006 1.004728876958e+006 1.004728876959e+006 1.004728876958e+006 1.004728876959e+006 1.004728876960e+006 1.004728876961e+006 1.004728876961e+006 1.004728876962e+006 1.004728876961e+006 1.004475074373e+006 1.004475074371e+006 1.004475074373e+006 1.004475074374e+006 1.004475074373e+006 1.004475074373e+006 1.004475074374e+006 1.004475074374e+006 1.004475074373e+006 1.004232080815e+006 1.004232080815e+006 1.004232080816e+006 1.004232080815e+006 1.004232080815e+006 1.004232080815e+006 1.004232080815e+006 1.004232080815e+006 1.004232080815e+006 1.004025114700e+006 1.004025114699e+006 1.004025114700e+006 1.004025114700e+006 1.004025114700e+006 1.004025114700e+006 1.004025114700e+006 1.004025114702e+006 1.004025114700e+006 1.003772402117e+006 1.003772402115e+006 1.003772402115e+006 1.003772402115e+006 1.003772402116e+006 1.003772402117e+006 1.003772402116e+006 1.003772402116e+006 1.003772402120e+006 1.003553525067e+006 1.003553525067e+006 1.003553525067e+006 1.003553525066e+006 1.003553525067e+006 1.003553525067e+006 1.003553525068e+006 1.003553525068e+006 1.003553525067e+006 1.003344818244e+006 1.003344818242e+006 1.003344818243e+006 1.003344818244e+006 1.003344818244e+006 1.003344818244e+006 1.003344818244e+006 1.003344818245e+006 1.003344818245e+006 1.003114914355e+006 1.003114914356e+006 1.003114914355e+006 1.003114914356e+006 1.003114914357e+006 1.003114914356e+006 1.003114914356e+006 1.003114914358e+006 1.003114914358e+006 1.002934220436e+006 1.002934220437e+006 1.002934220439e+006 1.002934220439e+006 1.002934220439e+006 1.002934220439e+006 1.002934220439e+006 1.002934220439e+006 1.002934220440e+006 1.002757193240e+006 1.002757193241e+006 1.002757193242e+006 1.002757193242e+006 1.002757193242e+006 1.002757193243e+006 1.002757193242e+006 1.002757193242e+006 1.002757193242e+006 1.002619327824e+006 1.002619327824e+006 1.002619327825e+006 1.002619327825e+006 1.002619327825e+006 1.002619327825e+006 1.002619327825e+006 1.002619327824e+006 1.002619327824e+006 1.002481463972e+006 1.002481463972e+006 1.002481463972e+006 1.002481463973e+006 1.002481463973e+006 1.002481463973e+006 1.002481463973e+006 1.002481463972e+006 1.002481463972e+006 1.002343600723e+006 1.002343600723e+006 1.002343600723e+006 1.002343600723e+006 1.002343600723e+006 1.002343600723e+006 1.002343600723e+006 1.002343600722e+006 1.002343600723e+006 1.002205738230e+006 1.002205738230e+006 1.002205738230e+006 1.002205738230e+006 1.002205738230e+006 1.002205738231e+006 1.002205738231e+006 1.002205738230e+006 1.002205738230e+006 1.002067876449e+006 1.002067876449e+006 1.002067876449e+006 1.002067876448e+006 1.002067876449e+006 1.002067876449e+006 1.002067876449e+006 1.002067876448e+006 1.002067876448e+006 1.001930015320e+006 1.001930015320e+006 1.001930015319e+006 1.001930015319e+006 1.001930015319e+006 1.001930015319e+006 1.001930015319e+006 1.001930015319e+006 1.001930015319e+006 1.001792154792e+006 1.001792154792e+006 1.001792154792e+006 1.001792154792e+006 1.001792154792e+006 1.001792154792e+006 1.001792154792e+006 1.001792154792e+006 1.001792154792e+006 1.001654294819e+006 1.001654294819e+006 1.001654294819e+006 1.001654294819e+006 1.001654294819e+006 1.001654294819e+006 1.001654294819e+006 1.001654294819e+006 1.001654294819e+006 1.001516435349e+006 1.001516435349e+006 1.001516435349e+006 1.001516435349e+006 1.001516435349e+006 1.001516435349e+006 1.001516435349e+006 1.001516435349e+006 1.001516435349e+006 1.001378576334e+006 1.001378576334e+006 1.001378576334e+006 1.001378576334e+006 1.001378576334e+006 1.001378576334e+006 1.001378576334e+006 1.001378576334e+006 1.001378576334e+006 1.001240717722e+006 1.001240717722e+006 1.001240717722e+006 1.001240717722e+006 1.001240717722e+006 1.001240717722e+006 1.001240717722e+006 1.001240717722e+006 1.001240717722e+006 1.001102859463e+006 1.001102859463e+006 1.001102859463e+006 1.001102859463e+006 1.001102859463e+006 1.001102859463e+006 1.001102859464e+006 1.001102859463e+006 1.001102859463e+006 1.000965001507e+006 1.000965001506e+006 1.000965001506e+006 1.000965001506e+006 1.000965001507e+006 1.000965001507e+006 1.000965001507e+006 1.000965001507e+006 1.000965001507e+006 1.000827143802e+006 1.000827143802e+006 1.000827143802e+006 1.000827143802e+006 1.000827143802e+006 1.000827143802e+006 1.000827143802e+006 1.000827143802e+006 1.000827143802e+006 1.000689286298e+006 1.000689286298e+006 1.000689286298e+006 1.000689286298e+006 1.000689286298e+006 1.000689286298e+006 1.000689286298e+006 1.000689286298e+006 1.000689286298e+006 1.000551428944e+006 1.000551428944e+006 1.000551428944e+006 1.000551428944e+006 1.000551428944e+006 1.000551428944e+006 1.000551428944e+006 1.000551428944e+006 1.000551428944e+006 1.000413571688e+006 1.000413571688e+006 1.000413571688e+006 1.000413571688e+006 1.000413571688e+006 1.000413571688e+006 1.000413571688e+006 1.000413571688e+006 1.000413571688e+006 1.000275714480e+006 1.000275714480e+006 1.000275714480e+006 1.000275714480e+006 1.000275714480e+006 1.000275714480e+006 1.000275714480e+006 1.000275714480e+006 1.000275714480e+006 1.000137857267e+006 1.000137857267e+006 1.000137857267e+006 1.000137857267e+006 1.000137857267e+006 1.000137857267e+006 1.000137857267e+006 1.000137857267e+006 1.000137857267e+006 1.000000000000e+006 1.000000000000e+006 1.000000000000e+006 1.000000000000e+006 1.000000000000e+006 1.000000000000e+006 1.000000000000e+006 1.000000000000e+006 1.000000000000e+006 
        </DataArray>
        <DataArray type="Float64" Name="MOLAR_FRACTION" format="ascii">