<?xml version="1.0"?>
<VTKFile type="UnstructuredGrid" version="0.1" byte_order="LittleEndian">
  <UnstructuredGrid>
    <Piece NumberOfPoints="909" NumberOfCells="800">
      <Points>
        <DataArray type="Float64" NumberOfComponents="3" format="ascii">
          0.000000000000e+000 0.000000000000e+000 0.000000000000e+000
          2.000000000000e+000 0.000000000000e+000 0.000000000000e+000
          2.000000000000e+000 2.500000000000e+000 0.000000000000e+000
          0.000000000000e+000 2.500000000000e+000 0.000000000000e+000
          2.000000000000e+000 5.000000000000e+000 0.000000000000e+000
          0.000000000000e+000 5.000000000000e+000 0.000000000000e+000
          2.000000000000e+000 7.500000000000e+000 0.000000000000e+000
          0.000000000000e+000 7.500000000000e+000 0.000000000000e+000
          2.000000000000e+000 1.000000000000e+001 0.000000000000e+000
          0.000000000000e+000 1.000000000000e+001 0.000000000000e+000
          2.000000000000e+000 1.250000000000e+001 0.000000000000e+000
          0.000000000000e+000 1.250000000000e+001 0.000000000000e+000
          2.000000000000e+000 1.500000000000e+001 0.000000000000e+000
          0.000000000000e+000 1.500000000000e+001 0.000000000000e+000
          2.000000000000e+000 1.750000000000e+001 0.000000000000e+000
          0.000000000000e+000 1.750000000000e+001 0.000000000000e+000
          2.000000000000e+000 2.000000000000e+001 0.000000000000e+000
          0.000000000000e+000 2.000000000000e+001 0.000000000000e+000
          4.000000000000e+000 0.000000000000e+000 0.000000000000e+000
          4.000000000000e+000 2.500000000000e+000 0.000000000000e+000
          4.000000000000e+000 5.000000000000e+000 0.000000000000e+000
          4.000000000000e+000 7.500000000000e+000 0.000000000000e+000
          4.000000000000e+000 1.000000000000e+001 0.000000000000e+000
          4.000000000000e+000 1.250000000000e+001 0.000000000000e+000
          4.000000000000e+000 1.500000000000e+001 0.000000000000e+000
          4.000000000000e+000 1.750000000000e+001 0.000000000000e+000
          4.000000000000e+000 2.000000000000e+001 0.000000000000e+000
          6.000000000000e+000 0.000000000000e+000 0.000000000000e+000
          6.000000000000e+000 2.500000000000e+000 0.000000000000e+000
          6.000000000000e+000 5.000000000000e+000 0.000000000000e+000
          6.000000000000e+000 7.500000000000e+000 0.000000000000e+000
          6.000000000000e+000 1.000000000000e+001 0.000000000000e+000
          6.000000000000e+000 1.250000000000e+001 0.000000000000e+000
          6.000000000000e+000 1.500000000000e+001 0.000000000000e+000
          6.000000000000e+000 1.750000000000e+001 0.000000000000e+000
          6.000000000000e+000 2.000000000000e+001 0.000000000000e+000
          8.000000000000e+000 0.000000000000e+000 0.000000000000e+000
          8.000000000000e+000 2.500000000000e+000 0.000000000000e+000
          8.000000000000e+000 5.000000000000e+000 0.000000000000e+000
          8.000000000000e+000 7.500000000000e+000 0.000000000000e+000
          8.000000000000e+000 1.000000000000e+001 0.000000000000e+000
          8.000000000000e+000 1.250000000000e+001 0.000000000000e+000
          8.000000000000e+000 1.500000000000e+001 0.000000000000e+000
          8.000000000000e+000 1.750000000000e+001 0.000000000000e+000
          8.000000000000e+000 2.000000000000e+001 0.000000000000e+000
          1.000000000000e+001 0.000000000000e+000 0.000000000000e+000
          1.000000000000e+001 2.500000000000e+000 0.000000000000e+000
          1.000000000000e+001 5.000000000000e+000 0.000000000000e+000
          1.000000000000e+001 7.500000000000e+000 0.000000000000e+000
          1.000000000000e+001 1.000000000000e+001 0.000000000000e+000
          1.000000000000e+001 1.250000000000e+001 0.000000000000e+000
          1.000000000000e+001 1.500000000000e+001 0.000000000000e+000
          1.000000000000e+001 1.750000000000e+001 0.000000000000e+000
          1.000000000000e+001 2.000000000000e+001 0.000000000000e+000
          1.200000000000e+001 0.000000000000e+000 0.000000000000e+000
          1.200000000000e+001 2.500000000000e+000 0.000000000000e+000
          1.200000000000e+001 5.000000000000e+000 0.000000000000e+000
          1.200000000000e+001 7.500000000000e+000 0.000000000000e+000
          1.200000000000e+001 1.000000000000e+001 0.000000000000e+000
          1.200000000000e+001 1.250000000000e+001 0.000000000000e+000
          1.200000000000e+001 1.500000000000e+001 0.000000000000e+000
          1.200000000000e+001 1.750000000000e+001 0.000000000000e+000
          1.200000000000e+001 2.000000000000e+001 0.000000000000e+000
          1.400000000000e+001 0.000000000000e+000 0.000000000000e+000
          1.400000000000e+001 2.500000000000e+000 0.000000000000e+000
          1.400000000000e+001 5.000000000000e+000 0.000000000000e+000
          1.400000000000e+001 7.500000000000e+000 0.000000000000e+000
          1.400000000000e+001 1.000000000000e+001 0.000000000000e+000
          1.400000000000e+001 1.250000000000e+001 0.000000000000e+000
          1.400000000000e+001 1.500000000000e+001 0.000000000000e+000
          1.400000000000e+001 1.750000000000e+001 0.000000000000e+000
          1.400000000000e+001 2.000000000000e+001 0.000000000000e+000
          1.600000000000e+001 0.000000000000e+000 0.000000000000e+000
          1.600000000000e+001 2.500000000000e+000 0.000000000000e+000
          1.600000000000e+001 5.000000000000e+000 0.000000000000e+000
          1.600000000000e+001 7.500000000000e+000 0.000000000000e+000
          1.600000000000e+001 1.000000000000e+001 0.000000000000e+000
          1.600000000000e+001 1.250000000000e+001 0.000000000000e+000
          1.600000000000e+001 1.500000000000e+001 0.000000000000e+000
          1.600000000000e+001 1.750000000000e+001 0.000000000000e+000
          1.600000000000e+001 2.000000000000e+001 0.000000000000e+000
          1.800000000000e+001 0.000000000000e+000 0.000000000000e+000
          1.800000000000e+001 2.500000000000e+000 0.000000000000e+000
          1.800000000000e+001 5.000000000000e+000 0.000000000000e+000
          1.800000000000e+001 7.500000000000e+000 0.000000000000e+000
          1.800000000000e+001 1.000000000000e+001 0.000000000000e+000
          1.800000000000e+001 1.250000000000e+001 0.000000000000e+000
          1.800000000000e+001 1.500000000000e+001 0.000000000000e+000
          1.800000000000e+001 1.750000000000e+001 0.000000000000e+000
          1.800000000000e+001 2.000000000000e+001 0.000000000000e+000
          2.000000000000e+001 0.000000000000e+000 0.000000000000e+000
          2.000000000000e+001 2.500000000000e+000 0.000000000000e+000
          2.000000000000e+001 5.000000000000e+000 0.000000000000e+000
          2.000000000000e+001 7.500000000000e+000 0.000000000000e+000
          2.000000000000e+001 1.000000000000e+001 0.000000000000e+000
          2.000000000000e+001 1.250000000000e+001 0.000000000000e+000
          2.000000000000e+001 1.500000000000e+001 0.000000000000e+000
          2.000000000000e+001 1.750000000000e+001 0.000000000000e+000
          2.000000000000e+001 2.000000000000e+001 0.000000000000e+000
          2.200000000000e+001 0.000000000000e+000 0.000000000000e+000
          2.200000000000e+001 2.500000000000e+000 0.000000000000e+000
          2.200000000000e+001 5.000000000000e+000 0.000000000000e+000
          2.200000000000e+001 7.500000000000e+000 0.000000000000e+000
          2.200000000000e+001 1.000000000000e+001 0.000000000000e+000
          2.200000000000e+001 1.250000000000e+001 0.000000000000e+000
          2.200000000000e+001 1.500000000000e+001 0.000000000000e+000
          2.200000000000e+001 1.750000000000e+001 0.000000000000e+000
          2.200000000000e+001 2.000000000000e+001 0.000000000000e+000
          2.400000000000e+001 0.000000000000e+000 0.000000000000e+000
          2.400000000000e+001 2.500000000000e+000 0.000000000000e+000
          2.400000000000e+001 5.000000000000e+000 0.000000000000e+000
          2.400000000000e+001 7.500000000000e+000 0.000000000000e+000
          2.400000000000e+001 1.000000000000e+001 0.000000000000e+000
          2.400000000000e+001 1.250000000000e+001 0.000000000000e+000
          2.400000000000e+001 1.500000000000e+001 0.000000000000e+000
          2.400000000000e+001 1.750000000000e+001 0.000000000000e+000
          2.400000000000e+001 2.000000000000e+001 0.000000000000e+000
          2.600000000000e+001 0.000000000000e+000 0.000000000000e+000
          2.600000000000e+001 2.500000000000e+000 0.000000000000e+000
          2.600000000000e+001 5.000000000000e+000 0.000000000000e+000
          2.600000000000e+001 7.500000000000e+000 0.000000000000e+000
          2.600000000000e+001 1.000000000000e+001 0.000000000000e+000
          2.600000000000e+001 1.250000000000e+001 0.000000000000e+000
          2.600000000000e+001 1.500000000000e+001 0.000000000000e+000
          2.600000000000e+001 1.750000000000e+001 0.000000000000e+000
          2.600000000000e+001 2.000000000000e+001 0.000000000000e+000
          2.800000000000e+001 0.000000000000e+000 0.000000000000e+000
          2.800000000000e+001 2.500000000000e+000 0.000000000000e+000
          2.800000000000e+001 5.000000000000e+000 0.000000000000e+000
          2.800000000000e+001 7.500000000000e+000 0.000000000000e+000
          2.800000000000e+001 1.000000000000e+001 0.000000000000e+000
          2.800000000000e+001 1.250000000000e+001 0.000000000000e+000
          2.800000000000e+001 1.500000000000e+001 0.000000000000e+000
          2.800000000000e+001 1.750000000000e+001 0.000000000000e+000
          2.800000000000e+001 2.000000000000e+001 0.000000000000e+000
          3.000000000000e+001 0.000000000000e+000 0.000000000000e+000
          3.000000000000e+001 2.500000000000e+000 0.000000000000e+000
          3.000000000000e+001 5.000000000000e+000 0.000000000000e+000
          3.000000000000e+001 7.500000000000e+000 0.000000000000e+000
[...]
      <PointData Scalars="LIQUID_PRESSURE">
        <DataArray type="Float64" Name="LIQUID_PRESSURE" format="ascii">
          1.061284535197e+006 1.061292615302e+006 1.061292615316e+006 1.061284535109e+006 1.061292615343e+006 1.061284535050e+006 1.061292615307e+006 1.061284535141e+006 1.061292615328e+006 1.061284535119e+006 1.061292615371e+006 1.061284534999e+006 1.061292615358e+006 1.061284534991e+006 1.061292615374e+006 1.061284534947e+006 1.061292615405e+006 1.061284534876e+006 1.061260018001e+006 1.061260018039e+006 1.061260018060e+006 1.061260018016e+006 1.061260018024e+006 1.061260018074e+006 1.061260018050e+006 1.061260018069e+006 1.061260018103e+006 1.061179208911e+006 1.061179208938e+006 1.061179208951e+006 1.061179208920e+006 1.061179208927e+006 1.061179208950e+006 1.061179208930e+006 1.061179208933e+006 1.061179208948e+006 1.061137194855e+006 1.061137194868e+006 1.061137194881e+006 1.061137194856e+006 1.061137194856e+006 1.061137194867e+006 1.061137194854e+006 1.061137194849e+006 1.061137194859e+006 1.061020868674e+006 1.061020868685e+006 1.061020868688e+006 1.061020868680e+006 1.061020868673e+006 1.061020868688e+006 1.061020868677e+006 1.061020868673e+006 1.061020868680e+006 1.060891121064e+006 1.060891121070e+006 1.060891121074e+006 1.060891121068e+006 1.060891121068e+006 1.060891121072e+006 1.060891121069e+006 1.060891121068e+006 1.060891121070e+006 1.060780191155e+006 1.060780191156e+006 1.060780191160e+006 1.060780191154e+006 1.060780191158e+006 1.060780191157e+006 1.060780191157e+006 1.060780191156e+006 1.060780191157e+006 1.060586725001e+006 1.060586724999e+006 1.060586725001e+006 1.060586724998e+006 1.060586725000e+006 1.060586725002e+006 1.060586725001e+006 1.060586725004e+006 1.060586724999e+006 1.060423547004e+006 1.060423547003e+006 1.060423547004e+006 1.060423547003e+006 1.060423547003e+006 1.060423547002e+006 1.060423547003e+006 1.060423547002e+006 1.060423547004e+006 1.060217916287e+006 1.060217916290e+006 1.060217916290e+006 1.060217916289e+006 1.060217916290e+006 1.060217916289e+006 1.060217916289e+006 1.060217916289e+006 1.060217916289e+006 1.059981134966e+006 1.059981134969e+006 1.059981134967e+006 1.059981134968e+006 1.059981134965e+006 1.059981134966e+006 1.059981134970e+006 1.059981134967e+006 1.059981134970e+006 1.059752421969e+006 1.059752421968e+006 1.059752421969e+006 1.059752421969e+006 1.059752421968e+006 1.059752421970e+006 1.059752421967e+006 1.059752421969e+006 1.059752421969e+006 1.059465874711e+006 1.059465874710e+006 1.059465874712e+006 1.059465874712e+006 1.059465874713e+006 1.059465874712e+006 1.059465874711e+006 1.059465874711e+006 1.059465874711e+006 1.059197942615e+006 1.059197942618e+006 1.059197942615e+006 1.059197942618e+006 1.059197942616e+006 1.059197942617e+006 1.059197942618e+006 1.059197942618e+006 1.059197942616e+006 1.058879961643e+006 1.058879961641e+006 1.058879961644e+006 1.058879961641e+006 1.058879961644e+006 1.058879961641e+006 1.058879961642e+006 1.058879961641e+006 1.058879961642e+006 1.058555437302e+006 1.058555437300e+006 1.058555437300e+006 1.058555437300e+006 1.058555437298e+006 1.058555437301e+006 1.058555437299e+006 1.058555437300e+006 1.058555437299e+006 1.058217162210e+006 1.058217162211e+006 1.058217162210e+006 1.058217162211e+006 1.058217162210e+006 1.058217162210e+006 1.058217162210e+006 1.058217162211e+006 1.058217162210e+006 1.057829253910e+006 1.057829253911e+006 1.057829253910e+006 1.057829253910e+006 1.057829253911e+006 1.057829253911e+006 1.057829253910e+006 1.057829253910e+006 1.057829253911e+006 1.057466424319e+006 1.057466424319e+006 1.057466424318e+006 1.057466424318e+006 1.057466424319e+006 1.057466424318e+006 1.057466424318e+006 1.057466424318e+006 1.057466424320e+006 1.057043047064e+006 1.057043047063e+006 1.057043047064e+006 1.057043047063e+006 1.057043047063e+006 1.057043047065e+006 1.057043047063e+006 1.057043047064e+006 1.057043047063e+006 1.056625742426e+006 1.056625742426e+006 1.056625742427e+006 1.056625742425e+006 1.056625742426e+006 1.056625742425e+006 1.056625742426e+006 1.056625742427e+006 1.056625742425e+006 1.056180822110e+006 1.056180822109e+006 1.056180822110e+006 1.056180822111e+006 1.056180822110e+006 1.056180822111e+006 1.056180822110e+006 1.056180822110e+006 1.056180822111e+006 1.055715126608e+006 1.055715126609e+006 1.055715126608e+006 1.055715126608e+006 1.055715126608e+006 1.055715126608e+006 1.055715126608e+006 1.055715126608e+006 1.055715126608e+006 1.055242591379e+006 1.055242591378e+006 1.055242591379e+006 1.055242591378e+006 1.055242591379e+006 1.055242591378e+006 1.055242591379e+006 1.055242591378e+006 1.055242591378e+006 1.054727820206e+006 1.054727820206e+006 1.054727820206e+006 1.054727820207e+006 1.054727820206e+006 1.054727820207e+006 1.054727820206e+006 1.054727820207e+006 1.054727820206e+006 1.054223176162e+006 1.054223176162e+006 1.054223176162e+006 1.054223176162e+006 1.054223176162e+006 1.054223176162e+006 1.054223176162e+006 1.054223176162e+006 1.054223176162e+006 1.053681198835e+006 1.053681198836e+006 1.053681198836e+006 1.053681198836e+006 1.053681198836e+006 1.053681198836e+006 1.053681198836e+006 1.053681198836e+006 1.053681198837e+006 1.053122913878e+006 1.053122913879e+006 1.053122913878e+006 1.053122913878e+006 1.053122913878e+006 1.053122913878e+006 1.053122913879e+006 1.053122913878e+006 1.053122913878e+006 1.052568155459e+006 1.052568155459e+006 1.052568155460e+006 1.052568155460e+006 1.052568155460e+006 1.052568155459e+006 1.052568155459e+006 1.052568155459e+006 1.052568155459e+006 1.051962190528e+006 1.051962190528e+006 1.051962190528e+006 1.051962190527e+006 1.051962190528e+006 1.051962190528e+006 1.051962190528e+006 1.051962190528e+006 1.051962190528e+006 1.051368259873e+006 1.051368259873e+006 1.051368259873e+006 1.051368259873e+006 1.051368259873e+006 1.051368259873e+006 1.051368259873e+006 1.051368259873e+006 1.051368259873e+006 1.050749872732e+006 1.050749872732e+006 1.050749872732e+006 1.050749872732e+006 1.050749872732e+006 1.050749872732e+006 1.050749872732e+006 1.050749872732e+006 1.050749872732e+006 1.050097884580e+006 1.050097884580e+006 1.050097884580e+006 1.050097884580e+006 1.050097884580e+006 1.050097884580e+006 1.050097884580e+006 1.050097884580e+006 1.050097884580e+006 1.049462599800e+006 1.049462599800e+006 1.049462599800e+006 1.049462599800e+006 1.049462599800e+006 1.049462599800e+006 1.049462599800e+006 1.049462599799e+006 1.049462599800e+006 1.048783660031e+006 1.048783660031e+006 1.048783660031e+006 1.048783660032e+006 1.048783660031e+006 1.048783660031e+006 1.048783660031e+006 1.048783660031e+006 1.048783660031e+006 1.048097740380e+006 1.048097740380e+006 1.048097740380e+006 1.048097740380e+006 1.048097740380e+006 1.048097740380e+006 1.048097740380e+006 1.048097740380e+006 1.048097740380e+006 1.047408862474e+006 1.047408862474e+006 1.047408862475e+006 1.047408862474e+006 1.047408862475e+006 1.047408862475e+006 1.047408862475e+006 1.047408862474e+006 1.047408862475e+006 1.046685699138e+006 1.046685699138e+006 1.046685699137e+006 1.046685699138e+006 1.046685699138e+006 1.046685699138e+006 1.046685699138e+006 1.046685699138e+006 1.046685699138e+006 1.045959439036e+006 1.045959439036e+006 1.045959439036e+006 1.045959439036e+006 1.045959439036e+006 1.045959439036e+006 1.045959439036e+006 1.045959439036e+006 1.045959439036e+006 1.045230243626e+006 1.045230243625e+006 1.045230243625e+006 1.045230243626e+006 1.045230243626e+006 1.045230243626e+006 1.045230243626e+006 1.045230243625e+006 1.045230243626e+006 1.044458322955e+006 1.044458322955e+006 1.044458322955e+006 1.044458322955e+006 1.044458322955e+006 1.044458322955e+006 1.044458322955e+006 1.044458322956e+006 1.044458322955e+006 1.043694966331e+006 1.043694966331e+006 1.043694966331e+006 1.043694966331e+006 1.043694966331e+006 1.043694966331e+006 1.043694966331e+006 1.043694966331e+006 1.043694966331e+006 1.042917045450e+006 1.042917045449e+006 1.042917045450e+006 1.042917045450e+006 1.042917045450e+006 1.042917045450e+006 1.042917045450e+006 1.042917045450e+006 1.042917045449e+006 1.042122650643e+006 1.042122650644e+006 1.042122650644e+006 1.042122650644e+006 1.042122650644e+006 1.042122650644e+006 1.042122650644e+006 1.042122650644e+006 1.042122650644e+006 1.041326608665e+006 1.041326608665e+006 1.041326608665e+006 1.041326608665e+006 1.041326608665e+006 1.041326608665e+006 1.041326608665e+006 1.041326608665e+006 1.041326608665e+006 1.040494591533e+006 1.040494591532e+006 1.040494591533e+006 1.040494591532e+006 1.040494591532e+006 1.040494591532e+006 1.040494591532e+006 1.040494591532e+006 1.040494591532e+006 1.039657529296e+006 1.039657529296e+006 1.039657529296e+006 1.039657529297e+006 1.039657529296e+006 1.039657529296e+006 1.039657529297e+006 1.039657529296e+006 1.039657529297e+006 1.038848166842e+006 1.038848166842e+006 1.038848166842e+006 1.038848166842e+006 1.038848166842e+006 1.038848166842e+006 1.038848166842e+006 1.038848166842e+006 1.038848166842e+006 1.037988780415e+006 1.037988780415e+006 1.037988780415e+006 1.037988780415e+006 1.037988780415e+006 1.037988780415e+006 1.037988780415e+006 1.037988780415e+006 1.037988780415e+006 1.037128346651e+006 1.037128346651e+006 1.037128346651e+006 1.037128346651e+006 1.037128346651e+006 1.037128346651e+006 1.037128346651e+006 1.037128346651e+006 1.037128346651e+006 1.036257500617e+006 1.036257500616e+006 1.036257500616e+006 1.036257500616e+006 1.036257500616e+006 1.036257500616e+006 1.036257500616e+006 1.036257500616e+006 1.036257500616e+006 1.035369639171e+006 1.035369639170e+006 1.035369639170e+006 1.035369639170e+006 1.035369639170e+006 1.035369639170e+006 1.035369639170e+006 1.035369639170e+006 1.035369639171e+006 1.034494982609e+006 1.034494982610e+006 1.034494982609e+006 1.034494982610e+006 1.034494982610e+006 1.034494982610e+006 1.034494982610e+006 1.034494982610e+006 1.034494982610e+006 1.033613726331e+006 1.033613726330e+006 1.033613726330e+006 1.033613726330e+006 1.033613726330e+006 1.033613726330e+006 1.033613726330e+006 1.033613726330e+006 1.033613726330e+006 1.032709420090e+006 1.032709420091e+006 1.032709420090e+006 1.032709420091e+006 1.032709420091e+006 1.032709420090e+006 1.032709420090e+006 1.032709420090e+006 1.032709420090e+006 1.031795164633e+006 1.031795164633e+006 1.031795164633e+006 1.031795164633e+006 1.031795164633e+006 1.031795164633e+006 1.031795164633e+006 1.031795164633e+006 1.031795164634e+006 1.030895580106e+006 1.030895580107e+006 1.030895580107e+006 1.030895580107e+006 1.030895580107e+006 1.030895580107e+006 1.030895580107e+006 1.030895580107e+006 1.030895580106e+006 1.029973182845e+006 1.029973182844e+006 1.029973182846e+006 1.029973182845e+006 1.029973182844e+006 1.029973182844e+006 1.029973182845e+006 1.029973182845e+006 1.029973182844e+006 1.029000806248e+006 1.029000806248e+006 1.029000806248e+006 1.029000806250e+006 1.029000806249e+006 1.029000806250e+006 1.029000806250e+006 1.029000806250e+006 1.029000806250e+006 1.028121958462e+006 1.028121958462e+006 1.028121958462e+006 1.028121958461e+006 1.028121958461e+006 1.028121958461e+006 1.028121958461e+006 1.028121958461e+006 1.028121958460e+006 1.027234823824e+006 1.027234823824e+006 1.027234823823e+006 1.027234823822e+006 1.027234823821e+006 1.027234823820e+006 1.027234823820e+006 1.027234823820e+006 1.027234823820e+006 1.026252848856e+006 1.026252848856e+006 1.026252848859e+006 1.026252848865e+006 1.026252848871e+006 1.026252848873e+006 1.026252848874e+006 1.026252848875e+006 1.026252848875e+006 1.025250488634e+006 1.025250488634e+006 1.025250488631e+006 1.025250488617e+006 1.025250488608e+006 1.025250488604e+006 1.025250488601e+006 1.025250488600e+006 1.025250488599e+006 1.024472785912e+006 1.024472785911e+006 1.024472785913e+006 1.024472785936e+006 1.024472785946e+006 1.024472785950e+006 1.024472785954e+006 1.024472785956e+006 1.024472785956e+006 1.023350939702e+006 1.023350939701e+006 1.023350939703e+006 1.023350939678e+006 1.023350939673e+006 1.023350939668e+006 1.023350939665e+006 1.023350939663e+006 1.023350939662e+006 1.022605199295e+006 1.022605199299e+006 1.022605199294e+006 1.022605199303e+006 1.022605199301e+006 1.022605199304e+006 1.022605199304e+006 1.022605199305e+006 1.022605199305e+006 1.021533384761e+006 1.021533384763e+006 1.021533384758e+006 1.021533384772e+006 1.021533384770e+006 1.021533384772e+006 1.021533384773e+006 1.021533384772e+006 1.021533384774e+006 1.020606379184e+006 1.020606379185e+006 1.020606379179e+006 1.020606379186e+006 1.020606379181e+006 1.020606379182e+006 1.020606379183e+006 1.020606379182e+006 1.020606379183e+006 1.019730596364e+006 1.019730596364e+006 1.019730596360e+006 1.019730596363e+006 1.019730596360e+006 1.019730596359e+006 1.019730596360e+006 1.019730596359e+006 1.019730596360e+006 1.018803478724e+006 1.018803478722e+006 1.018803478722e+006 1.018803478722e+006 1.018803478721e+006 1.018803478720e+006 1.018803478721e+006 1.018803478720e+006 1.018803478719e+006 1.017900736611e+006 1.017900736611e+006 1.017900736610e+006 1.017900736611e+006 1.017900736611e+006 1.017900736611e+006 1.017900736612e+006 1.017900736611e+006 1.017900736610e+006 1.016969092485e+006 1.016969092485e+006 1.016969092484e+006 1.016969092486e+006 1.016969092485e+006 1.016969092485e+006 1.016969092486e+006 1.016969092485e+006 1.016969092486e+006 1.016057174886e+006 1.016057174886e+006 1.016057174886e+006 1.016057174887e+006 1.016057174887e+006 1.016057174887e+006 1.016057174887e+006 1.016057174887e+006 1.016057174887e+006 1.015212267911e+006 1.015212267911e+006 1.015212267911e+006 1.015212267911e+006 1.015212267911e+006 1.015212267911e+006 1.015212267911e+006 1.015212267911e+006 1.015212267911e+006 1.014331509334e+006 1.014331509333e+006 1.014331509332e+006 1.014331509333e+006 1.014331509334e+006 1.014331509333e+006 1.014331509333e+006 1.014331509333e+006 1.014331509334e+006 1.013501889891e+006 1.013501889891e+006 1.013501889891e+006 1.013501889890e+006 1.013501889889e+006 1.013501889891e+006 1.013501889891e+006 1.013501889890e+006 1.013501889889e+006 1.012710118526e+006 1.012710118526e+006 1.012710118526e+006 1.012710118526e+006 1.012710118525e+006 1.012710118526e+006 1.012710118526e+006 1.012710118525e+006 1.012710118525e+006 1.011945454290e+006 1.011945454290e+006 1.011945454290e+006 1.011945454290e+006 1.011945454290e+006 1.011945454290e+006 1.011945454290e+006 1.011945454290e+006 1.011945454290e+006 1.011356968889e+006 1.011356968889e+006 1.011356968889e+006 1.011356968889e+006 1.011356968889e+006 1.011356968889e+006 1.011356968888e+006 1.011356968888e+006 1.011356968888e+006 1.010816112532e+006 1.010816112532e+006 1.010816112533e+006 1.010816112533e+006 1.010816112533e+006 1.010816112533e+006 1.010816112532e+006 1.010816112533e+006 1.010816112532e+006 1.010275264265e+006 1.010275264265e+006 1.010275264265e+006 1.010275264265e+006 1.010275264265e+006 1.010275264265e+006 1.010275264265e+006 1.010275264264e+006 1.010275264265e+006 1.009734422871e+006 1.009734422871e+006 1.009734422871e+006 1.009734422871e+006 1.009734422871e+006 1.009734422871e+006 1.009734422871e+006 1.009734422871e+006 1.009734422870e+006 1.009193587744e+006 1.009193587744e+006 1.009193587744e+006 1.009193587744e+006 1.009193587745e+006 1.009193587744e+006 1.009193587744e+006 1.009193587744e+006 1.009193587744e+006 1.008652758486e+006 1.008652758486e+006 1.008652758486e+006 1.008652758486e+006 1.008652758486e+006 1.008652758486e+006 1.008652758486e+006 1.008652758486e+006 1.008652758486e+006 1.008111934757e+006 1.008111934757e+006 1.008111934757e+006 1.008111934757e+006 1.008111934757e+006 1.008111934757e+006 1.008111934757e+006 1.008111934757e+006 1.008111934756e+006 1.007571116224e+006 1.007571116224e+006 1.007571116224e+006 1.007571116224e+006 1.007571116223e+006 1.007571116223e+006 1.007571116223e+006 1.007571116224e+006 1.007571116224e+006 1.007030302543e+006 1.007030302543e+006 1.007030302543e+006 1.007030302543e+006 1.007030302542e+006 1.007030302542e+006 1.007030302542e+006 1.007030302542e+006 1.007030302542e+006 1.006489493361e+006 1.006489493361e+006 1.006489493361e+006 1.006489493361e+006 1.006489493361e+006 1.006489493361e+006 1.006489493361e+006 1.006489493361e+006 1.006489493361e+006 1.005948688320e+006 1.005948688320e+006 1.005948688320e+006 1.005948688320e+006 1.005948688320e+006 1.005948688320e+006 1.005948688320e+006 1.005948688320e+006 1.005948688319e+006 1.005407887056e+006 1.005407887056e+006 1.005407887056e+006 1.005407887056e+006 1.005407887056e+006 1.005407887056e+006 1.005407887055e+006 1.005407887055e+006 1.005407887055e+006 1.004867089201e+006 1.004867089201e+006 1.004867089201e+006 1.004867089201e+006 1.004867089201e+006 1.004867089201e+006 1.004867089201e+006 1.004867089201e+006 1.004867089201e+006 1.004326294387e+006 1.004326294387e+006 1.004326294387e+006 1.004326294387e+006 1.004326294387e+006 1.004326294387e+006 1.004326294387e+006 1.004326294387e+006 1.004326294387e+006 1.003785502239e+006 1.003785502239e+006 1.003785502239e+006 1.003785502239e+006 1.003785502239e+006 1.003785502239e+006 1.003785502239e+006 1.003785502239e+006 1.003785502239e+006 1.003244712381e+006 1.003244712381e+006 1.003244712381e+006 1.003244712381e+006 1.003244712381e+006 1.003244712381e+006 1.003244712381e+006 1.003244712381e+006 1.003244712381e+006 1.002703924434e+006 1.002703924434e+006 1.002703924434e+006 1.002703924434e+006 1.002703924434e+006 1.002703924434e+006 1.002703924434e+006 1.002703924435e+006 1.002703924434e+006 1.002163138019e+006 1.002163138019e+006 1.002163138019e+006 1.002163138019e+006 1.002163138019e+006 1.002163138019e+006 1.002163138019e+006 1.002163138019e+006 1.002163138019e+006 1.001622352752e+006 1.001622352752e+006 1.001622352752e+006 1.001622352752e+006 1.001622352752e+006 1.001622352752e+006 1.001622352752e+006 1.001622352752e+006 1.001622352752e+006 1.001081568250e+006 1.001081568250e+006 1.001081568250e+006 1.001081568250e+006 1.001081568250e+006 1.001081568250e+006 1.001081568250e+006 1.001081568250e+006 1.001081568250e+006 1.000540784128e+006 1.000540784128e+006 1.000540784128e+006 1.000540784128e+006 1.000540784128e+006 1.000540784128e+006 1.000540784128e+006 1.000540784128e+006 1.000540784128e+006 1.000000000000e+006 1.000000000000e+006 1.000000000000e+006 1.000000000000e+006 1.000000000000e+006 1.000000000000e+006 1.000000000000e+006 1.000000000000e+006 1.000000000000e+006 
        </DataArray>
        <DataArray type="Float64" Name="MOLAR_FRACTION" format="ascii">