<?xml version="1.0"?>
<VTKFile type="UnstructuredGrid" version="0.1" byte_order="LittleEndian">
  <UnstructuredGrid>
    <Piece NumberOfPoints="909" NumberOfCells="800">
      <Points>
        <DataArray type="Float64" NumberOfComponents="3" format="ascii">
          0.000000000000e+000 0.000000000000e+000 0.000000000000e+000
          2.000000000000e+000 0.000000000000e+000 0.000000000000e+000
          2.000000000000e+000 2.500000000000e+000 0.000000000000e+000
          0.000000000000e+000 2.500000000000e+000 0.000000000000e+000
          2.000000000000e+000 5.000000000000e+000 0.000000000000e+000
          0.000000000000e+000 5.000000000000e+000 0.000000000000e+000
          2.000000000000e+000 7.500000000000e+000 0.000000000000e+000
          0.000000000000e+000 7.500000000000e+000 0.000000000000e+000
          2.000000000000e+000 1.000000000000e+001 0.000000000000e+000
          0.000000000000e+000 1.000000000000e+001 0.000000000000e+000
          2.000000000000e+000 1.250000000000e+001 0.000000000000e+000
          0.000000000000e+000 1.250000000000e+001 0.000000000000e+000
          2.000000000000e+000 1.500000000000e+001 0.000000000000e+000
          0.000000000000e+000 1.500000000000e+001 0.000000000000e+000
          2.000000000000e+000 1.750000000000e+001 0.000000000000e+000
          0.000000000000e+000 1.750000000000e+001 0.000000000000e+000
          2.000000000000e+000 2.000000000000e+001 0.000000000000e+000
          0.000000000000e+000 2.000000000000e+001 0.000000000000e+000
          4.000000000000e+000 0.000000000000e+000 0.000000000000e+000
          4.000000000000e+000 2.500000000000e+000 0.000000000000e+000
          4.000000000000e+000 5.000000000000e+000 0.000000000000e+000
          4.000000000000e+000 7.500000000000e+000 0.000000000000e+000
          4.000000000000e+000 1.000000000000e+001 0.000000000000e+000
          4.000000000000e+000 1.250000000000e+001 0.000000000000e+000
          4.000000000000e+000 1.500000000000e+001 0.000000000000e+000
          4.000000000000e+000 1.750000000000e+001 0.000000000000e+000
          4.000000000000e+000 2.000000000000e+001 0.000000000000e+000
          6.000000000000e+000 0.000000000000e+000 0.000000000000e+000
          6.000000000000e+000 2.500000000000e+000 0.000000000000e+000
          6.000000000000e+000 5.000000000000e+000 0.000000000000e+000
          6.000000000000e+000 7.500000000000e+000 0.000000000000e+000
          6.000000000000e+000 1.000000000000e+001 0.000000000000e+000
          6.000000000000e+000 1.250000000000e+001 0.000000000000e+000
          6.000000000000e+000 1.500000000000e+001 0.000000000000e+000
          6.000000000000e+000 1.750000000000e+001 0.000000000000e+000
          6.000000000000e+000 2.000000000000e+001 0.000000000000e+000
          8.000000000000e+000 0.000000000000e+000 0.000000000000e+000
          8.000000000000e+000 2.500000000000e+000 0.000000000000e+000
          8.000000000000e+000 5.000000000000e+000 0.000000000000e+000
          8.000000000000e+000 7.500000000000e+000 0.000000000000e+000
          8.000000000000e+000 1.000000000000e+001 0.000000000000e+000
          8.000000000000e+000 1.250000000000e+001 0.000000000000e+000
          8.000000000000e+000 1.500000000000e+001 0.000000000000e+000
          8.000000000000e+000 1.750000000000e+001 0.000000000000e+000
          8.000000000000e+000 2.000000000000e+001 0.000000000000e+000
          1.000000000000e+001 0.000000000000e+000 0.000000000000e+000
          1.000000000000e+001 2.500000000000e+000 0.000000000000e+000
          1.000000000000e+001 5.000000000000e+000 0.000000000000e+000
          1.000000000000e+001 7.500000000000e+000 0.000000000000e+000
          1.000000000000e+001 1.000000000000e+001 0.000000000000e+000
          1.000000000000e+001 1.250000000000e+001 0.000000000000e+000
          1.000000000000e+001 1.500000000000e+001 0.000000000000e+000
          1.000000000000e+001 1.750000000000e+001 0.000000000000e+000
          1.000000000000e+001 2.000000000000e+001 0.000000000000e+000
          1.200000000000e+001 0.000000000000e+000 0.000000000000e+000
          1.200000000000e+001 2.500000000000e+000 0.000000000000e+000
          1.200000000000e+001 5.000000000000e+000 0.000000000000e+000
          1.200000000000e+001 7.500000000000e+000 0.000000000000e+000
          1.200000000000e+001 1.000000000000e+001 0.000000000000e+000
          1.200000000000e+001 1.250000000000e+001 0.000000000000e+000
          1.200000000000e+001 1.500000000000e+001 0.000000000000e+000
          1.200000000000e+001 1.750000000000e+001 0.000000000000e+000
          1.200000000000e+001 2.000000000000e+001 0.000000000000e+000
          1.400000000000e+001 0.000000000000e+000 0.000000000000e+000
          1.400000000000e+001 2.500000000000e+000 0.000000000000e+000
          1.400000000000e+001 5.000000000000e+000 0.000000000000e+000
          1.400000000000e+001 7.500000000000e+000 0.000000000000e+000
          1.400000000000e+001 1.000000000000e+001 0.000000000000e+000
          1.400000000000e+001 1.250000000000e+001 0.000000000000e+000
          1.400000000000e+001 1.500000000000e+001 0.000000000000e+000
          1.400000000000e+001 1.750000000000e+001 0.000000000000e+000
          1.400000000000e+001 2.000000000000e+001 0.000000000000e+000
          1.600000000000e+001 0.000000000000e+000 0.000000000000e+000
          1.600000000000e+001 2.500000000000e+000 0.000000000000e+000
          1.600000000000e+001 5.000000000000e+000 0.000000000000e+000
          1.600000000000e+001 7.500000000000e+000 0.000000000000e+000
          1.600000000000e+001 1.000000000000e+001 0.000000000000e+000
          1.600000000000e+001 1.250000000000e+001 0.000000000000e+000
          1.600000000000e+001 1.500000000000e+001 0.000000000000e+000
          1.600000000000e+001 1.750000000000e+001 0.000000000000e+000
          1.600000000000e+001 2.000000000000e+001 0.000000000000e+000
          1.800000000000e+001 0.000000000000e+000 0.000000000000e+000
          1.800000000000e+001 2.500000000000e+000 0.000000000000e+000
          1.800000000000e+001 5.000000000000e+000 0.000000000000e+000
          1.800000000000e+001 7.500000000000e+000 0.000000000000e+000
          1.800000000000e+001 1.000000000000e+001 0.000000000000e+000
          1.800000000000e+001 1.250000000000e+001 0.000000000000e+000
          1.800000000000e+001 1.500000000000e+001 0.000000000000e+000
          1.800000000000e+001 1.750000000000e+001 0.000000000000e+000
          1.800000000000e+001 2.000000000000e+001 0.000000000000e+000
          2.000000000000e+001 0.000000000000e+000 0.000000000000e+000
          2.000000000000e+001 2.500000000000e+000 0.000000000000e+000
          2.000000000000e+001 5.000000000000e+000 0.000000000000e+000
          2.000000000000e+001 7.500000000000e+000 0.000000000000e+000
          2.000000000000e+001 1.000000000000e+001 0.000000000000e+000
          2.000000000000e+001 1.250000000000e+001 0.000000000000e+000
          2.000000000000e+001 1.500000000000e+001 0.000000000000e+000
          2.000000000000e+001 1.750000000000e+001 0.000000000000e+000
          2.000000000000e+001 2.000000000000e+001 0.000000000000e+000
          2.200000000000e+001 0.000000000000e+000 0.000000000000e+000
          2.200000000000e+001 2.500000000000e+000 0.000000000000e+000
          2.200000000000e+001 5.000000000000e+000 0.000000000000e+000
          2.200000000000e+001 7.500000000000e+000 0.000000000000e+000
          2.200000000000e+001 1.000000000000e+001 0.000000000000e+000
          2.200000000000e+001 1.250000000000e+001 0.000000000000e+000
          2.200000000000e+001 1.500000000000e+001 0.000000000000e+000
          2.200000000000e+001 1.750000000000e+001 0.000000000000e+000
          2.200000000000e+001 2.000000000000e+001 0.000000000000e+000
          2.400000000000e+001 0.000000000000e+000 0.000000000000e+000
          2.400000000000e+001 2.500000000000e+000 0.000000000000e+000
          2.400000000000e+001 5.000000000000e+000 0.000000000000e+000
          2.400000000000e+001 7.500000000000e+000 0.000000000000e+000
          2.400000000000e+001 1.000000000000e+001 0.000000000000e+000
          2.400000000000e+001 1.250000000000e+001 0.000000000000e+000
          2.400000000000e+001 1.500000000000e+001 0.000000000000e+000
          2.400000000000e+001 1.750000000000e+001 0.000000000000e+000
          2.400000000000e+001 2.000000000000e+001 0.000000000000e+000
          2.600000000000e+001 0.000000000000e+000 0.000000000000e+000
          2.600000000000e+001 2.500000000000e+000 0.000000000000e+000
          2.600000000000e+001 5.000000000000e+000 0.000000000000e+000
          2.600000000000e+001 7.500000000000e+000 0.000000000000e+000
          2.600000000000e+001 1.000000000000e+001 0.000000000000e+000
          2.600000000000e+001 1.250000000000e+001 0.000000000000e+000
          2.600000000000e+001 1.500000000000e+001 0.000000000000e+000
          2.600000000000e+001 1.750000000000e+001 0.000000000000e+000
          2.600000000000e+001 2.000000000000e+001 0.000000000000e+000
          2.800000000000e+001 0.000000000000e+000 0.000000000000e+000
          2.800000000000e+001 2.500000000000e+000 0.000000000000e+000
          2.800000000000e+001 5.000000000000e+000 0.000000000000e+000
          2.800000000000e+001 7.500000000000e+000 0.000000000000e+000
          2.800000000000e+001 1.000000000000e+001 0.000000000000e+000
          2.800000000000e+001 1.250000000000e+001 0.000000000000e+000
          2.800000000000e+001 1.500000000000e+001 0.000000000000e+000
          2.800000000000e+001 1.750000000000e+001 0.000000000000e+000
          2.800000000000e+001 2.000000000000e+001 0.000000000000e+000
          3.000000000000e+001 0.000000000000e+000 0.000000000000e+000
          3.000000000000e+001 2.500000000000e+000 0.000000000000e+000
          3.000000000000e+001 5.000000000000e+000 0.000000000000e+000
          3.000000000000e+001 7.500000000000e+000 0.000000000000e+000
[...]
      <PointData Scalars="LIQUID_PRESSURE">
        <DataArray type="Float64" Name="LIQUID_PRESSURE" format="ascii">
          1.010839115601e+006 1.010850440895e+006 1.010850440905e+006 1.010839115544e+006 1.010850440922e+006 1.010839115488e+006 1.010850440888e+006 1.010839115555e+006 1.010850440908e+006 1.010839115544e+006 1.010850440944e+006 1.010839115455e+006 1.010850440940e+006 1.010839115465e+006 1.010850440953e+006 1.010839115440e+006 1.010850440976e+006 1.010839115378e+006 1.010846654496e+006 1.010846654523e+006 1.010846654529e+006 1.010846654505e+006 1.010846654509e+006 1.010846654533e+006 1.010846654513e+006 1.010846654525e+006 1.010846654544e+006 1.010812439092e+006 1.010812439102e+006 1.010812439106e+006 1.010812439091e+006 1.010812439095e+006 1.010812439106e+006 1.010812439097e+006 1.010812439089e+006 1.010812439095e+006 1.010824421978e+006 1.010824421984e+006 1.010824421981e+006 1.010824421973e+006 1.010824421970e+006 1.010824421979e+006 1.010824421968e+006 1.010824421963e+006 1.010824421970e+006 1.010791938151e+006 1.010791938157e+006 1.010791938152e+006 1.010791938151e+006 1.010791938146e+006 1.010791938152e+006 1.010791938138e+006 1.010791938143e+006 1.010791938152e+006 1.010757809551e+006 1.010757809548e+006 1.010757809554e+006 1.010757809554e+006 1.010757809552e+006 1.010757809546e+006 1.010757809541e+006 1.010757809545e+006 1.010757809548e+006 1.010755433328e+006 1.010755433323e+006 1.010755433327e+006 1.010755433332e+006 1.010755433324e+006 1.010755433318e+006 1.010755433319e+006 1.010755433316e+006 1.010755433323e+006 1.010696805750e+006 1.010696805742e+006 1.010696805751e+006 1.010696805752e+006 1.010696805740e+006 1.010696805738e+006 1.010696805743e+006 1.010696805743e+006 1.010696805736e+006 1.010676040128e+006 1.010676040123e+006 1.010676040128e+006 1.010676040126e+006 1.010676040121e+006 1.010676040115e+006 1.010676040124e+006 1.010676040118e+006 1.010676040117e+006 1.010635128879e+006 1.010635128889e+006 1.010635128886e+006 1.010635128883e+006 1.010635128880e+006 1.010635128879e+006 1.010635128885e+006 1.010635128884e+006 1.010635128878e+006 1.010580429476e+006 1.010580429481e+006 1.010580429477e+006 1.010580429474e+006 1.010580429469e+006 1.010580429460e+006 1.010580429478e+006 1.010580429478e+006 1.010580429470e+006 1.010548031273e+006 1.010548031266e+006 1.010548031274e+006 1.010548031263e+006 1.010548031260e+006 1.010548031263e+006 1.010548031260e+006 1.010548031262e+006 1.010548031269e+006 1.010478103879e+006 1.010478103871e+006 1.010478103864e+006 1.010478103864e+006 1.010478103861e+006 1.010478103859e+006 1.010478103862e+006 1.010478103857e+006 1.010478103860e+006 1.010437292809e+006 1.010437292804e+006 1.010437292793e+006 1.010437292800e+006 1.010437292795e+006 1.010437292798e+006 1.010437292796e+006 1.010437292796e+006 1.010437292794e+006 1.010368074791e+006 1.010368074792e+006 1.010368074791e+006 1.010368074787e+006 1.010368074789e+006 1.010368074780e+006 1.010368074783e+006 1.010368074781e+006 1.010368074786e+006 1.010304828684e+006 1.010304828684e+006 1.010304828679e+006 1.010304828677e+006 1.010304828681e+006 1.010304828674e+006 1.010304828678e+006 1.010304828677e+006 1.010304828678e+006 1.010246858650e+006 1.010246858662e+006 1.010246858652e+006 1.010246858656e+006 1.010246858660e+006 1.010246858659e+006 1.010246858663e+006 1.010246858653e+006 1.010246858657e+006 1.010157220733e+006 1.010157220731e+006 1.010157220730e+006 1.010157220721e+006 1.010157220728e+006 1.010157220735e+006 1.010157220728e+006 1.010157220731e+006 1.010157220732e+006 1.010102215157e+006 1.010102215148e+006 1.010102215149e+006 1.010102215157e+006 1.010102215152e+006 1.010102215146e+006 1.010102215148e+006 1.010102215149e+006 1.010102215155e+006 1.010009146311e+006 1.010009146307e+006 1.010009146307e+006 1.010009146321e+006 1.010009146312e+006 1.010009146312e+006 1.010009146312e+006 1.010009146306e+006 1.010009146316e+006 1.009933482436e+006 1.009933482443e+006 1.009933482445e+006 1.009933482443e+006 1.009933482443e+006 1.009933482442e+006 1.009933482440e+006 1.009933482440e+006 1.009933482438e+006 1.009847068490e+006 1.009847068492e+006 1.009847068497e+006 1.009847068495e+006 1.009847068498e+006 1.009847068501e+006 1.009847068495e+006 1.009847068495e+006 1.009847068496e+006 1.009754183311e+006 1.009754183303e+006 1.009754183307e+006 1.009754183308e+006 1.009754183311e+006 1.009754183313e+006 1.009754183313e+006 1.009754183312e+006 1.009754183308e+006 1.009670362568e+006 1.009670362568e+006 1.009670362565e+006 1.009670362567e+006 1.009670362568e+006 1.009670362569e+006 1.009670362573e+006 1.009670362571e+006 1.009670362566e+006 1.009562363386e+006 1.009562363399e+006 1.009562363392e+006 1.009562363393e+006 1.009562363393e+006 1.009562363392e+006 1.009562363393e+006 1.009562363393e+006 1.009562363389e+006 1.009473825628e+006 1.009473825623e+006 1.009473825628e+006 1.009473825624e+006 1.009473825623e+006 1.009473825621e+006 1.009473825624e+006 1.009473825631e+006 1.009473825623e+006 1.009367774682e+006 1.009367774678e+006 1.009367774677e+006 1.009367774681e+006 1.009367774677e+006 1.009367774670e+006 1.009367774677e+006 1.009367774678e+006 1.009367774686e+006 1.009256623328e+006 1.009256623323e+006 1.009256623316e+006 1.009256623317e+006 1.009256623320e+006 1.009256623318e+006 1.009256623321e+006 1.009256623324e+006 1.009256623330e+006 1.009161543037e+006 1.009161543037e+006 1.009161543033e+006 1.009161543034e+006 1.009161543035e+006 1.009161543036e+006 1.009161543035e+006 1.009161543034e+006 1.009161543035e+006 1.009035895253e+006 1.009035895249e+006 1.009035895250e+006 1.009035895256e+006 1.009035895254e+006 1.009035895252e+006 1.009035895254e+006 1.009035895253e+006 1.009035895249e+006 1.008928831022e+006 1.008928831027e+006 1.008928831029e+006 1.008928831035e+006 1.008928831035e+006 1.008928831032e+006 1.008928831037e+006 1.008928831035e+006 1.008928831036e+006 1.008815404533e+006 1.008815404531e+006 1.008815404532e+006 1.008815404536e+006 1.008815404539e+006 1.008815404538e+006 1.008815404537e+006 1.008815404531e+006 1.008815404537e+006 1.008683037146e+006 1.008683037141e+006 1.008683037144e+006 1.008683037145e+006 1.008683037147e+006 1.008683037144e+006 1.008683037144e+006 1.008683037142e+006 1.008683037139e+006 1.008574302968e+006 1.008574302970e+006 1.008574302970e+006 1.008574302972e+006 1.008574302976e+006 1.008574302970e+006 1.008574302977e+006 1.008574302969e+006 1.008574302971e+006 1.008441888386e+006 1.008441888385e+006 1.008441888385e+006 1.008441888384e+006 1.008441888390e+006 1.008441888389e+006 1.008441888388e+006 1.008441888388e+006 1.008441888385e+006 1.008312238085e+006 1.008312238087e+006 1.008312238086e+006 1.008312238086e+006 1.008312238090e+006 1.008312238088e+006 1.008312238090e+006 1.008312238087e+006 1.008312238088e+006 1.008190110118e+006 1.008190110121e+006 1.008190110122e+006 1.008190110124e+006 1.008190110123e+006 1.008190110124e+006 1.008190110126e+006 1.008190110123e+006 1.008190110117e+006 1.008050680831e+006 1.008050680826e+006 1.008050680822e+006 1.008050680826e+006 1.008050680827e+006 1.008050680828e+006 1.008050680826e+006 1.008050680823e+006 1.008050680823e+006 1.007915235259e+006 1.007915235255e+006 1.007915235256e+006 1.007915235253e+006 1.007915235258e+006 1.007915235257e+006 1.007915235257e+006 1.007915235254e+006 1.007915235260e+006 1.007788209157e+006 1.007788209159e+006 1.007788209156e+006 1.007788209160e+006 1.007788209158e+006 1.007788209159e+006 1.007788209160e+006 1.007788209159e+006 1.007788209160e+006 1.007638571330e+006 1.007638571334e+006 1.007638571332e+006 1.007638571336e+006 1.007638571335e+006 1.007638571334e+006 1.007638571333e+006 1.007638571335e+006 1.007638571334e+006 1.007501775149e+006 1.007501775150e+006 1.007501775153e+006 1.007501775155e+006 1.007501775157e+006 1.007501775150e+006 1.007501775160e+006 1.007501775153e+006 1.007501775155e+006 1.007359974985e+006 1.007359974990e+006 1.007359974989e+006 1.007359974988e+006 1.007359974992e+006 1.007359974990e+006 1.007359974989e+006 1.007359974997e+006 1.007359974996e+006 1.007211447921e+006 1.007211447927e+006 1.007211447926e+006 1.007211447926e+006 1.007211447925e+006 1.007211447925e+006 1.007211447925e+006 1.007211447926e+006 1.007211447926e+006 1.007073924715e+006 1.007073924719e+006 1.007073924717e+006 1.007073924721e+006 1.007073924717e+006 1.007073924717e+006 1.007073924716e+006 1.007073924717e+006 1.007073924718e+006 1.006920028899e+006 1.006920028900e+006 1.006920028903e+006 1.006920028903e+006 1.006920028898e+006 1.006920028902e+006 1.006920028904e+006 1.006920028902e+006 1.006920028905e+006 1.006762103784e+006 1.006762103784e+006 1.006762103784e+006 1.006762103785e+006 1.006762103787e+006 1.006762103785e+006 1.006762103787e+006 1.006762103786e+006 1.006762103784e+006 1.006628076631e+006 1.006628076634e+006 1.006628076634e+006 1.006628076633e+006 1.006628076636e+006 1.006628076634e+006 1.006628076636e+006 1.006628076635e+006 1.006628076634e+006 1.006465575601e+006 1.006465575603e+006 1.006465575604e+006 1.006465575607e+006 1.006465575606e+006 1.006465575604e+006 1.006465575604e+006 1.006465575605e+006 1.006465575608e+006 1.006314344299e+006 1.006314344297e+006 1.006314344299e+006 1.006314344298e+006 1.006314344296e+006 1.006314344299e+006 1.006314344300e+006 1.006314344299e+006 1.006314344298e+006 1.006162147728e+006 1.006162147724e+006 1.006162147724e+006 1.006162147724e+006 1.006162147719e+006 1.006162147724e+006 1.006162147725e+006 1.006162147725e+006 1.006162147723e+006 1.006000723187e+006 1.006000723190e+006 1.006000723192e+006 1.006000723188e+006 1.006000723184e+006 1.006000723188e+006 1.006000723187e+006 1.006000723187e+006 1.006000723187e+006 1.005847206200e+006 1.005847206205e+006 1.005847206207e+006 1.005847206206e+006 1.005847206205e+006 1.005847206202e+006 1.005847206204e+006 1.005847206203e+006 1.005847206203e+006 1.005694271338e+006 1.005694271338e+006 1.005694271337e+006 1.005694271339e+006 1.005694271338e+006 1.005694271335e+006 1.005694271336e+006 1.005694271338e+006 1.005694271336e+006 1.005531206922e+006 1.005531206924e+006 1.005531206926e+006 1.005531206922e+006 1.005531206923e+006 1.005531206920e+006 1.005531206924e+006 1.005531206924e+006 1.005531206924e+006 1.005370024025e+006 1.005370024026e+006 1.005370024025e+006 1.005370024024e+006 1.005370024024e+006 1.005370024025e+006 1.005370024023e+006 1.005370024026e+006 1.005370024025e+006 1.005215689883e+006 1.005215689886e+006 1.005215689886e+006 1.005215689885e+006 1.005215689886e+006 1.005215689886e+006 1.005215689885e+006 1.005215689885e+006 1.005215689884e+006 1.005068637466e+006 1.005068637469e+006 1.005068637468e+006 1.005068637468e+006 1.005068637469e+006 1.005068637468e+006 1.005068637470e+006 1.005068637467e+006 1.005068637467e+006 1.004873824699e+006 1.004873824697e+006 1.004873824697e+006 1.004873824694e+006 1.004873824693e+006 1.004873824694e+006 1.004873824694e+006 1.004873824693e+006 1.004873824693e+006 1.004736793211e+006 1.004736793212e+006 1.004736793210e+006 1.004736793213e+006 1.004736793217e+006 1.004736793218e+006 1.004736793217e+006 1.004736793220e+006 1.004736793217e+006 1.004591763177e+006 1.004591763176e+006 1.004591763176e+006 1.004591763170e+006 1.004591763167e+006 1.004591763165e+006 1.004591763163e+006 1.004591763165e+006 1.004591763161e+006 1.004418768752e+006 1.004418768754e+006 1.004418768756e+006 1.004418768764e+006 1.004418768769e+006 1.004418768775e+006 1.004418768774e+006 1.004418768777e+006 1.004418768774e+006 1.004209595073e+006 1.004209595070e+006 1.004209595069e+006 1.004209595050e+006 1.004209595046e+006 1.004209595042e+006 1.004209595043e+006 1.004209595038e+006 1.004209595036e+006 1.004167327920e+006 1.004167327921e+006 1.004167327913e+006 1.004167327936e+006 1.004167327944e+006 1.004167327945e+006 1.004167327948e+006 1.004167327946e+006 1.004167327950e+006 1.003858404361e+006 1.003858404355e+006 1.003858404359e+006 1.003858404337e+006 1.003858404336e+006 1.003858404334e+006 1.003858404328e+006 1.003858404326e+006 1.003858404327e+006 1.003845796352e+006 1.003845796355e+006 1.003845796353e+006 1.003845796353e+006 1.003845796358e+006 1.003845796361e+006 1.003845796360e+006 1.003845796358e+006 1.003845796361e+006 1.003589102227e+006 1.003589102228e+006 1.003589102221e+006 1.003589102230e+006 1.003589102225e+006 1.003589102228e+006 1.003589102227e+006 1.003589102228e+006 1.003589102227e+006 1.003457870555e+006 1.003457870557e+006 1.003457870552e+006 1.003457870554e+006 1.003457870549e+006 1.003457870551e+006 1.003457870550e+006 1.003457870549e+006 1.003457870550e+006 1.003321095176e+006 1.003321095178e+006 1.003321095176e+006 1.003321095176e+006 1.003321095174e+006 1.003321095174e+006 1.003321095174e+006 1.003321095174e+006 1.003321095174e+006 1.003151144917e+006 1.003151144914e+006 1.003151144915e+006 1.003151144915e+006 1.003151144913e+006 1.003151144914e+006 1.003151144915e+006 1.003151144914e+006 1.003151144916e+006 1.003005481847e+006 1.003005481847e+006 1.003005481846e+006 1.003005481847e+006 1.003005481847e+006 1.003005481848e+006 1.003005481847e+006 1.003005481847e+006 1.003005481847e+006 1.002845280822e+006 1.002845280821e+006 1.002845280821e+006 1.002845280823e+006 1.002845280822e+006 1.002845280821e+006 1.002845280822e+006 1.002845280820e+006 1.002845280819e+006 1.002692093139e+006 1.002692093139e+006 1.002692093140e+006 1.002692093139e+006 1.002692093140e+006 1.002692093139e+006 1.002692093138e+006 1.002692093138e+006 1.002692093137e+006 1.002569647990e+006 1.002569647990e+006 1.002569647991e+006 1.002569647991e+006 1.002569647990e+006 1.002569647991e+006 1.002569647990e+006 1.002569647991e+006 1.002569647989e+006 1.002402375679e+006 1.002402375677e+006 1.002402375678e+006 1.002402375678e+006 1.002402375678e+006 1.002402375678e+006 1.002402375677e+006 1.002402375676e+006 1.002402375681e+006 1.002268169694e+006 1.002268169694e+006 1.002268169694e+006 1.002268169692e+006 1.002268169692e+006 1.002268169693e+006 1.002268169693e+006 1.002268169693e+006 1.002268169692e+006 1.002139561749e+006 1.002139561747e+006 1.002139561749e+006 1.002139561748e+006 1.002139561750e+006 1.002139561749e+006 1.002139561749e+006 1.002139561750e+006 1.002139561750e+006 1.001989099302e+006 1.001989099302e+006 1.001989099301e+006 1.001989099302e+006 1.001989099302e+006 1.001989099302e+006 1.001989099302e+006 1.001989099303e+006 1.001989099303e+006 1.001879642213e+006 1.001879642213e+006 1.001879642214e+006 1.001879642214e+006 1.001879642214e+006 1.001879642214e+006 1.001879642214e+006 1.001879642215e+006 1.001879642215e+006 1.001763171912e+006 1.001763171913e+006 1.001763171914e+006 1.001763171913e+006 1.001763171913e+006 1.001763171914e+006 1.001763171914e+006 1.001763171914e+006 1.001763171913e+006 1.001672472821e+006 1.001672472821e+006 1.001672472821e+006 1.001672472821e+006 1.001672472821e+006 1.001672472821e+006 1.001672472821e+006 1.001672472821e+006 1.001672472821e+006 1.001584445294e+006 1.001584445295e+006 1.001584445295e+006 1.001584445295e+006 1.001584445295e+006 1.001584445295e+006 1.001584445295e+006 1.001584445295e+006 1.001584445294e+006 1.001496418058e+006 1.001496418058e+006 1.001496418058e+006 1.001496418059e+006 1.001496418059e+006 1.001496418058e+006 1.001496418058e+006 1.001496418058e+006 1.001496418058e+006 1.001408391320e+006 1.001408391320e+006 1.001408391321e+006 1.001408391320e+006 1.001408391320e+006 1.001408391321e+006 1.001408391321e+006 1.001408391320e+006 1.001408391320e+006 1.001320364997e+006 1.001320364997e+006 1.001320364997e+006 1.001320364997e+006 1.001320364997e+006 1.001320364997e+006 1.001320364997e+006 1.001320364997e+006 1.001320364997e+006 1.001232339061e+006 1.001232339062e+006 1.001232339061e+006 1.001232339061e+006 1.001232339061e+006 1.001232339061e+006 1.001232339061e+006 1.001232339061e+006 1.001232339061e+006 1.001144313486e+006 1.001144313486e+006 1.001144313486e+006 1.001144313486e+006 1.001144313486e+006 1.001144313486e+006 1.001144313486e+006 1.001144313486e+006 1.001144313486e+006 1.001056288241e+006 1.001056288241e+006 1.001056288242e+006 1.001056288242e+006 1.001056288242e+006 1.001056288242e+006 1.001056288242e+006 1.001056288241e+006 1.001056288242e+006 1.000968263297e+006 1.000968263298e+006 1.000968263298e+006 1.000968263298e+006 1.000968263298e+006 1.000968263298e+006 1.000968263298e+006 1.000968263298e+006 1.000968263298e+006 1.000880238624e+006 1.000880238624e+006 1.000880238624e+006 1.000880238624e+006 1.000880238624e+006 1.000880238624e+006 1.000880238624e+006 1.000880238624e+006 1.000880238624e+006 1.000792214190e+006 1.000792214190e+006 1.000792214189e+006 1.000792214190e+006 1.000792214190e+006 1.000792214190e+006 1.000792214190e+006 1.000792214190e+006 1.000792214190e+006 1.000704189965e+006 1.000704189965e+006 1.000704189965e+006 1.000704189965e+006 1.000704189965e+006 1.000704189965e+006 1.000704189965e+006 1.000704189965e+006 1.000704189965e+006 1.000616165918e+006 1.000616165917e+006 1.000616165917e+006 1.000616165918e+006 1.000616165918e+006 1.000616165918e+006 1.000616165918e+006 1.000616165918e+006 1.000616165918e+006 1.000528142019e+006 1.000528142019e+006 1.000528142019e+006 1.000528142019e+006 1.000528142019e+006 1.000528142019e+006 1.000528142019e+006 1.000528142019e+006 1.000528142019e+006 1.000440118236e+006 1.000440118236e+006 1.000440118236e+006 1.000440118236e+006 1.000440118236e+006 1.000440118237e+006 1.000440118237e+006 1.000440118237e+006 1.000440118237e+006 1.000352094540e+006 1.000352094540e+006 1.000352094540e+006 1.000352094540e+006 1.000352094541e+006 1.000352094540e+006 1.000352094541e+006 1.000352094541e+006 1.000352094541e+006 1.000264070900e+006 1.000264070900e+006 1.000264070900e+006 1.000264070900e+006 1.000264070900e+006 1.000264070900e+006 1.000264070900e+006 1.000264070900e+006 1.000264070900e+006 1.000176047283e+006 1.000176047283e+006 1.000176047283e+006 1.000176047283e+006 1.000176047283e+006 1.000176047283e+006 1.000176047283e+006 1.000176047283e+006 1.000176047283e+006 1.000088023660e+006 1.000088023660e+006 1.000088023660e+006 1.000088023660e+006 1.000088023660e+006 1.000088023660e+006 1.000088023660e+006 1.000088023660e+006 1.000088023660e+006 1.000000000000e+006 1.000000000000e+006 1.000000000000e+006 1.000000000000e+006 1.000000000000e+006 1.000000000000e+006 1.000000000000e+006 1.000000000000e+006 1.000000000000e+006 
        </DataArray>
        <DataArray type="Float64" Name="MOLAR_FRACTION" format="ascii">