<?xml version="1.0"?>
<VTKFile type="UnstructuredGrid" version="0.1" byte_order="LittleEndian">
  <UnstructuredGrid>
    <Piece NumberOfPoints="909" NumberOfCells="800">
      <Points>
        <DataArray type="Float64" NumberOfComponents="3" format="ascii">
          0.000000000000e+000 0.000000000000e+000 0.000000000000e+000
          2.000000000000e+000 0.000000000000e+000 0.000000000000e+000
          2.000000000000e+000 2.500000000000e+000 0.000000000000e+000
          0.000000000000e+000 2.500000000000e+000 0.000000000000e+000
          2.000000000000e+000 5.000000000000e+000 0.000000000000e+000
          0.000000000000e+000 5.000000000000e+000 0.000000000000e+000
          2.000000000000e+000 7.500000000000e+000 0.000000000000e+000
          0.000000000000e+000 7.500000000000e+000 0.000000000000e+000
          2.000000000000e+000 1.000000000000e+001 0.000000000000e+000
          0.000000000000e+000 1.000000000000e+001 0.000000000000e+000
          2.000000000000e+000 1.250000000000e+001 0.000000000000e+000
          0.000000000000e+000 1.250000000000e+001 0.000000000000e+000
          2.000000000000e+000 1.500000000000e+001 0.000000000000e+000
          0.000000000000e+000 1.500000000000e+001 0.000000000000e+000
          2.000000000000e+000 1.750000000000e+001 0.000000000000e+000
          0.000000000000e+000 1.750000000000e+001 0.000000000000e+000
          2.000000000000e+000 2.000000000000e+001 0.000000000000e+000
          0.000000000000e+000 2.000000000000e+001 0.000000000000e+000
          4.000000000000e+000 0.000000000000e+000 0.000000000000e+000
          4.000000000000e+000 2.500000000000e+000 0.000000000000e+000
          4.000000000000e+000 5.000000000000e+000 0.000000000000e+000
          4.000000000000e+000 7.500000000000e+000 0.000000000000e+000
          4.000000000000e+000 1.000000000000e+001 0.000000000000e+000
          4.000000000000e+000 1.250000000000e+001 0.000000000000e+000
          4.000000000000e+000 1.500000000000e+001 0.000000000000e+000
          4.000000000000e+000 1.750000000000e+001 0.000000000000e+000
          4.000000000000e+000 2.000000000000e+001 0.000000000000e+000
          6.000000000000e+000 0.000000000000e+000 0.000000000000e+000
          6.000000000000e+000 2.500000000000e+000 0.000000000000e+000
          6.000000000000e+000 5.000000000000e+000 0.000000000000e+000
          6.000000000000e+000 7.500000000000e+000 0.000000000000e+000
          6.000000000000e+000 1.000000000000e+001 0.000000000000e+000
          6.000000000000e+000 1.250000000000e+001 0.000000000000e+000
          6.000000000000e+000 1.500000000000e+001 0.000000000000e+000
          6.000000000000e+000 1.750000000000e+001 0.000000000000e+000
          6.000000000000e+000 2.000000000000e+001 0.000000000000e+000
          8.000000000000e+000 0.000000000000e+000 0.000000000000e+000
          8.000000000000e+000 2.500000000000e+000 0.000000000000e+000
          8.000000000000e+000 5.000000000000e+000 0.000000000000e+000
          8.000000000000e+000 7.500000000000e+000 0.000000000000e+000
          8.000000000000e+000 1.000000000000e+001 0.000000000000e+000
          8.000000000000e+000 1.250000000000e+001 0.000000000000e+000
          8.000000000000e+000 1.500000000000e+001 0.000000000000e+000
          8.000000000000e+000 1.750000000000e+001 0.000000000000e+000
          8.000000000000e+000 2.000000000000e+001 0.000000000000e+000
          1.000000000000e+001 0.000000000000e+000 0.000000000000e+000
          1.000000000000e+001 2.500000000000e+000 0.000000000000e+000
          1.000000000000e+001 5.000000000000e+000 0.000000000000e+000
          1.000000000000e+001 7.500000000000e+000 0.000000000000e+000
          1.000000000000e+001 1.000000000000e+001 0.000000000000e+000
          1.000000000000e+001 1.250000000000e+001 0.000000000000e+000
          1.000000000000e+001 1.500000000000e+001 0.000000000000e+000
          1.000000000000e+001 1.750000000000e+001 0.000000000000e+000
          1.000000000000e+001 2.000000000000e+001 0.000000000000e+000
          1.200000000000e+001 0.000000000000e+000 0.000000000000e+000
          1.200000000000e+001 2.500000000000e+000 0.000000000000e+000
          1.200000000000e+001 5.000000000000e+000 0.000000000000e+000
          1.200000000000e+001 7.500000000000e+000 0.000000000000e+000
          1.200000000000e+001 1.000000000000e+001 0.000000000000e+000
          1.200000000000e+001 1.250000000000e+001 0.000000000000e+000
          1.200000000000e+001 1.500000000000e+001 0.000000000000e+000
          1.200000000000e+001 1.750000000000e+001 0.000000000000e+000
          1.200000000000e+001 2.000000000000e+001 0.000000000000e+000
          1.400000000000e+001 0.000000000000e+000 0.000000000000e+000
          1.400000000000e+001 2.500000000000e+000 0.000000000000e+000
          1.400000000000e+001 5.000000000000e+000 0.000000000000e+000
          1.400000000000e+001 7.500000000000e+000 0.000000000000e+000
          1.400000000000e+001 1.000000000000e+001 0.000000000000e+000
          1.400000000000e+001 1.250000000000e+001 0.000000000000e+000
          1.400000000000e+001 1.500000000000e+001 0.000000000000e+000
          1.400000000000e+001 1.750000000000e+001 0.000000000000e+000
          1.400000000000e+001 2.000000000000e+001 0.000000000000e+000
          1.600000000000e+001 0.000000000000e+000 0.000000000000e+000
          1.600000000000e+001 2.500000000000e+000 0.000000000000e+000
          1.600000000000e+001 5.000000000000e+000 0.000000000000e+000
          1.600000000000e+001 7.500000000000e+000 0.000000000000e+000
          1.600000000000e+001 1.000000000000e+001 0.000000000000e+000
          1.600000000000e+001 1.250000000000e+001 0.000000000000e+000
          1.600000000000e+001 1.500000000000e+001 0.000000000000e+000
          1.600000000000e+001 1.750000000000e+001 0.000000000000e+000
          1.600000000000e+001 2.000000000000e+001 0.000000000000e+000
          1.800000000000e+001 0.000000000000e+000 0.000000000000e+000
          1.800000000000e+001 2.500000000000e+000 0.000000000000e+000
          1.800000000000e+001 5.000000000000e+000 0.000000000000e+000
          1.800000000000e+001 7.500000000000e+000 0.000000000000e+000
          1.800000000000e+001 1.000000000000e+001 0.000000000000e+000
          1.800000000000e+001 1.250000000000e+001 0.000000000000e+000
          1.800000000000e+001 1.500000000000e+001 0.000000000000e+000
          1.800000000000e+001 1.750000000000e+001 0.000000000000e+000
          1.800000000000e+001 2.000000000000e+001 0.000000000000e+000
          2.000000000000e+001 0.000000000000e+000 0.000000000000e+000
          2.000000000000e+001 2.500000000000e+000 0.000000000000e+000
          2.000000000000e+001 5.000000000000e+000 0.000000000000e+000
          2.000000000000e+001 7.500000000000e+000 0.000000000000e+000
          2.000000000000e+001 1.000000000000e+001 0.000000000000e+000
          2.000000000000e+001 1.250000000000e+001 0.000000000000e+000
          2.000000000000e+001 1.500000000000e+001 0.000000000000e+000
          2.000000000000e+001 1.750000000000e+001 0.000000000000e+000
          2.000000000000e+001 2.000000000000e+001 0.000000000000e+000
          2.200000000000e+001 0.000000000000e+000 0.000000000000e+000
          2.200000000000e+001 2.500000000000e+000 0.000000000000e+000
          2.200000000000e+001 5.000000000000e+000 0.000000000000e+000
          2.200000000000e+001 7.500000000000e+000 0.000000000000e+000
          2.200000000000e+001 1.000000000000e+001 0.000000000000e+000
          2.200000000000e+001 1.250000000000e+001 0.000000000000e+000
          2.200000000000e+001 1.500000000000e+001 0.000000000000e+000
          2.200000000000e+001 1.750000000000e+001 0.000000000000e+000
          2.200000000000e+001 2.000000000000e+001 0.000000000000e+000
          2.400000000000e+001 0.000000000000e+000 0.000000000000e+000
          2.400000000000e+001 2.500000000000e+000 0.000000000000e+000
          2.400000000000e+001 5.000000000000e+000 0.000000000000e+000
          2.400000000000e+001 7.500000000000e+000 0.000000000000e+000
          2.400000000000e+001 1.000000000000e+001 0.000000000000e+000
          2.400000000000e+001 1.250000000000e+001 0.000000000000e+000
          2.400000000000e+001 1.500000000000e+001 0.000000000000e+000
          2.400000000000e+001 1.750000000000e+001 0.000000000000e+000
          2.400000000000e+001 2.000000000000e+001 0.000000000000e+000
          2.600000000000e+001 0.000000000000e+000 0.000000000000e+000
          2.600000000000e+001 2.500000000000e+000 0.000000000000e+000
          2.600000000000e+001 5.000000000000e+000 0.000000000000e+000
          2.600000000000e+001 7.500000000000e+000 0.000000000000e+000
          2.600000000000e+001 1.000000000000e+001 0.000000000000e+000
          2.600000000000e+001 1.250000000000e+001 0.000000000000e+000
          2.600000000000e+001 1.500000000000e+001 0.000000000000e+000
          2.600000000000e+001 1.750000000000e+001 0.000000000000e+000
          2.600000000000e+001 2.000000000000e+001 0.000000000000e+000
          2.800000000000e+001 0.000000000000e+000 0.000000000000e+000
          2.800000000000e+001 2.500000000000e+000 0.000000000000e+000
          2.800000000000e+001 5.000000000000e+000 0.000000000000e+000
          2.800000000000e+001 7.500000000000e+000 0.000000000000e+000
          2.800000000000e+001 1.000000000000e+001 0.000000000000e+000
          2.800000000000e+001 1.250000000000e+001 0.000000000000e+000
          2.800000000000e+001 1.500000000000e+001 0.000000000000e+000
          2.800000000000e+001 1.750000000000e+001 0.000000000000e+000
          2.800000000000e+001 2.000000000000e+001 0.000000000000e+000
          3.000000000000e+001 0.000000000000e+000 0.000000000000e+000
          3.000000000000e+001 2.500000000000e+000 0.000000000000e+000
          3.000000000000e+001 5.000000000000e+000 0.000000000000e+000
          3.000000000000e+001 7.500000000000e+000 0.000000000000e+000
[...]
      <PointData Scalars="LIQUID_PRESSURE">
        <DataArray type="Float64" Name="LIQUID_PRESSURE" format="ascii">
          1.117135304727e+006 1.117110153570e+006 1.117110153590e+006 1.117135304619e+006 1.117110153615e+006 1.117135304537e+006 1.117110153564e+006 1.117135304621e+006 1.117110153575e+006 1.117135304569e+006 1.117110153580e+006 1.117135304362e+006 1.117110153507e+006 1.117135304223e+006 1.117110153478e+006 1.117135304093e+006 1.117110153496e+006 1.117135303997e+006 1.116964301445e+006 1.116964301513e+006 1.116964301554e+006 1.116964301494e+006 1.116964301509e+006 1.116964301580e+006 1.116964301569e+006 1.116964301592e+006 1.116964301634e+006 1.116743591529e+006 1.116743591582e+006 1.116743591622e+006 1.116743591581e+006 1.116743591600e+006 1.116743591658e+006 1.116743591670e+006 1.116743591694e+006 1.116743591716e+006 1.116464204288e+006 1.116464204324e+006 1.116464204360e+006 1.116464204329e+006 1.116464204337e+006 1.116464204376e+006 1.116464204394e+006 1.116464204405e+006 1.116464204417e+006 1.116071564987e+006 1.116071565011e+006 1.116071565032e+006 1.116071565020e+006 1.116071565015e+006 1.116071565048e+006 1.116071565060e+006 1.116071565064e+006 1.116071565075e+006 1.115621513949e+006 1.115621513965e+006 1.115621513978e+006 1.115621513971e+006 1.115621513969e+006 1.115621513987e+006 1.115621513996e+006 1.115621514002e+006 1.115621514003e+006 1.115100364900e+006 1.115100364907e+006 1.115100364911e+006 1.115100364904e+006 1.115100364907e+006 1.115100364910e+006 1.115100364921e+006 1.115100364923e+006 1.115100364927e+006 1.114475225923e+006 1.114475225922e+006 1.114475225923e+006 1.114475225914e+006 1.114475225915e+006 1.114475225918e+006 1.114475225921e+006 1.114475225929e+006 1.114475225924e+006 1.113771251930e+006 1.113771251926e+006 1.113771251925e+006 1.113771251917e+006 1.113771251912e+006 1.113771251909e+006 1.113771251914e+006 1.113771251917e+006 1.113771251918e+006 1.112958067006e+006 1.112958067007e+006 1.112958067004e+006 1.112958066994e+006 1.112958066990e+006 1.112958066988e+006 1.112958066987e+006 1.112958066992e+006 1.112958066991e+006 1.112048529848e+006 1.112048529851e+006 1.112048529846e+006 1.112048529841e+006 1.112048529835e+006 1.112048529831e+006 1.112048529838e+006 1.112048529834e+006 1.112048529837e+006 1.111059517944e+006 1.111059517945e+006 1.111059517943e+006 1.111059517941e+006 1.111059517936e+006 1.111059517937e+006 1.111059517932e+006 1.111059517933e+006 1.111059517932e+006 1.109984813349e+006 1.109984813348e+006 1.109984813353e+006 1.109984813351e+006 1.109984813353e+006 1.109984813349e+006 1.109984813345e+006 1.109984813342e+006 1.109984813342e+006 1.108839613722e+006 1.108839613726e+006 1.108839613724e+006 1.108839613729e+006 1.108839613727e+006 1.108839613729e+006 1.108839613726e+006 1.108839613725e+006 1.108839613722e+006 1.107592843013e+006 1.107592843015e+006 1.107592843018e+006 1.107592843018e+006 1.107592843022e+006 1.107592843019e+006 1.107592843021e+006 1.107592843018e+006 1.107592843016e+006 1.106253960957e+006 1.106253960953e+006 1.106253960955e+006 1.106253960957e+006 1.106253960957e+006 1.106253960963e+006 1.106253960960e+006 1.106253960961e+006 1.106253960959e+006 1.104835691655e+006 1.104835691655e+006 1.104835691655e+006 1.104835691659e+006 1.104835691660e+006 1.104835691661e+006 1.104835691664e+006 1.104835691666e+006 1.104835691662e+006 1.103342098373e+006 1.103342098373e+006 1.103342098373e+006 1.103342098375e+006 1.103342098378e+006 1.103342098382e+006 1.103342098381e+006 1.103342098382e+006 1.103342098382e+006 1.101811825695e+006 1.101811825695e+006 1.101811825694e+006 1.101811825695e+006 1.101811825698e+006 1.101811825699e+006 1.101811825700e+006 1.101811825698e+006 1.101811825701e+006 1.100360548232e+006 1.100360548230e+006 1.100360548231e+006 1.100360548231e+006 1.100360548232e+006 1.100360548235e+006 1.100360548233e+006 1.100360548233e+006 1.100360548234e+006 1.099103042007e+006 1.099103042006e+006 1.099103042008e+006 1.099103042006e+006 1.099103042007e+006 1.099103042006e+006 1.099103042006e+006 1.099103042006e+006 1.099103042004e+006 1.097845655301e+006 1.097845655299e+006 1.097845655300e+006 1.097845655301e+006 1.097845655300e+006 1.097845655300e+006 1.097845655299e+006 1.097845655299e+006 1.097845655299e+006 1.096588388407e+006 1.096588388407e+006 1.096588388407e+006 1.096588388407e+006 1.096588388404e+006 1.096588388406e+006 1.096588388403e+006 1.096588388404e+006 1.096588388404e+006 1.095331240303e+006 1.095331240301e+006 1.095331240302e+006 1.095331240300e+006 1.095331240300e+006 1.095331240298e+006 1.095331240298e+006 1.095331240298e+006 1.095331240297e+006 1.094074209332e+006 1.094074209331e+006 1.094074209332e+006 1.094074209332e+006 1.094074209331e+006 1.094074209330e+006 1.094074209329e+006 1.094074209329e+006 1.094074209328e+006 1.092817293569e+006 1.092817293567e+006 1.092817293568e+006 1.092817293568e+006 1.092817293568e+006 1.092817293567e+006 1.092817293566e+006 1.092817293567e+006 1.092817293565e+006 1.091560490989e+006 1.091560490989e+006 1.091560490990e+006 1.091560490990e+006 1.091560490990e+006 1.091560490989e+006 1.091560490989e+006 1.091560490989e+006 1.091560490989e+006 1.090303799575e+006 1.090303799576e+006 1.090303799575e+006 1.090303799575e+006 1.090303799575e+006 1.090303799574e+006 1.090303799574e+006 1.090303799575e+006 1.090303799575e+006 1.089047217323e+006 1.089047217323e+006 1.089047217323e+006 1.089047217323e+006 1.089047217323e+006 1.089047217323e+006 1.089047217323e+006 1.089047217324e+006 1.089047217324e+006 1.087790742260e+006 1.087790742260e+006 1.087790742260e+006 1.087790742259e+006 1.087790742260e+006 1.087790742260e+006 1.087790742261e+006 1.087790742262e+006 1.087790742262e+006 1.086534372442e+006 1.086534372442e+006 1.086534372442e+006 1.086534372442e+006 1.086534372442e+006 1.086534372443e+006 1.086534372444e+006 1.086534372445e+006 1.086534372445e+006 1.085278105945e+006 1.085278105946e+006 1.085278105945e+006 1.085278105945e+006 1.085278105946e+006 1.085278105946e+006 1.085278105947e+006 1.085278105948e+006 1.085278105947e+006 1.084021940863e+006 1.084021940863e+006 1.084021940863e+006 1.084021940862e+006 1.084021940862e+006 1.084021940863e+006 1.084021940864e+006 1.084021940864e+006 1.084021940864e+006 1.082765875298e+006 1.082765875297e+006 1.082765875297e+006 1.082765875297e+006 1.082765875297e+006 1.082765875297e+006 1.082765875297e+006 1.082765875297e+006 1.082765875297e+006 1.081509907365e+006 1.081509907365e+006 1.081509907365e+006 1.081509907365e+006 1.081509907364e+006 1.081509907365e+006 1.081509907364e+006 1.081509907364e+006 1.081509907364e+006 1.080254035186e+006 1.080254035186e+006 1.080254035186e+006 1.080254035186e+006 1.080254035186e+006 1.080254035186e+006 1.080254035186e+006 1.080254035186e+006 1.080254035186e+006 1.078998256896e+006 1.078998256896e+006 1.078998256896e+006 1.078998256896e+006 1.078998256896e+006 1.078998256896e+006 1.078998256896e+006 1.078998256896e+006 1.078998256896e+006 1.077742570633e+006 1.077742570634e+006 1.077742570633e+006 1.077742570633e+006 1.077742570633e+006 1.077742570634e+006 1.077742570633e+006 1.077742570633e+006 1.077742570633e+006 1.076486974545e+006 1.076486974544e+006 1.076486974544e+006 1.076486974544e+006 1.076486974544e+006 1.076486974544e+006 1.076486974544e+006 1.076486974544e+006 1.076486974544e+006 1.075231466788e+006 1.075231466787e+006 1.075231466787e+006 1.075231466788e+006 1.075231466787e+006 1.075231466788e+006 1.075231466787e+006 1.075231466787e+006 1.075231466787e+006 1.073976045523e+006 1.073976045523e+006 1.073976045523e+006 1.073976045523e+006 1.073976045523e+006 1.073976045524e+006 1.073976045524e+006 1.073976045524e+006 1.073976045523e+006 1.072720708924e+006 1.072720708924e+006 1.072720708925e+006 1.072720708924e+006 1.072720708925e+006 1.072720708925e+006 1.072720708925e+006 1.072720708925e+006 1.072720708924e+006 1.071465455172e+006 1.071465455172e+006 1.071465455172e+006 1.071465455172e+006 1.071465455172e+006 1.071465455172e+006 1.071465455172e+006 1.071465455172e+006 1.071465455172e+006 1.070210282457e+006 1.070210282457e+006 1.070210282457e+006 1.070210282457e+006 1.070210282457e+006 1.070210282457e+006 1.070210282457e+006 1.070210282457e+006 1.070210282457e+006 1.068955188978e+006 1.068955188978e+006 1.068955188978e+006 1.068955188978e+006 1.068955188978e+006 1.068955188978e+006 1.068955188978e+006 1.068955188978e+006 1.068955188978e+006 1.067700172944e+006 1.067700172944e+006 1.067700172944e+006 1.067700172944e+006 1.067700172944e+006 1.067700172944e+006 1.067700172944e+006 1.067700172944e+006 1.067700172944e+006 1.066445232574e+006 1.066445232574e+006 1.066445232574e+006 1.066445232574e+006 1.066445232574e+006 1.066445232574e+006 1.066445232574e+006 1.066445232574e+006 1.066445232574e+006 1.065190366098e+006 1.065190366098e+006 1.065190366098e+006 1.065190366098e+006 1.065190366098e+006 1.065190366098e+006 1.065190366098e+006 1.065190366098e+006 1.065190366098e+006 1.063935571757e+006 1.063935571757e+006 1.063935571757e+006 1.063935571757e+006 1.063935571757e+006 1.063935571757e+006 1.063935571757e+006 1.063935571757e+006 1.063935571757e+006 1.062680847804e+006 1.062680847804e+006 1.062680847804e+006 1.062680847804e+006 1.062680847804e+006 1.062680847804e+006 1.062680847804e+006 1.062680847804e+006 1.062680847804e+006 1.061426192504e+006 1.061426192503e+006 1.061426192504e+006 1.061426192503e+006 1.061426192504e+006 1.061426192504e+006 1.061426192504e+006 1.061426192504e+006 1.061426192504e+006 1.060171604133e+006 1.060171604133e+006 1.060171604133e+006 1.060171604133e+006 1.060171604133e+006 1.060171604133e+006 1.060171604133e+006 1.060171604133e+006 1.060171604133e+006 1.058917080981e+006 1.058917080981e+006 1.058917080981e+006 1.058917080981e+006 1.058917080981e+006 1.058917080981e+006 1.058917080981e+006 1.058917080981e+006 1.058917080981e+006 1.057662621352e+006 1.057662621352e+006 1.057662621351e+006 1.057662621351e+006 1.057662621352e+006 1.057662621352e+006 1.057662621351e+006 1.057662621352e+006 1.057662621351e+006 1.056408223560e+006 1.056408223560e+006 1.056408223560e+006 1.056408223560e+006 1.056408223560e+006 1.056408223560e+006 1.056408223560e+006 1.056408223560e+006 1.056408223560e+006 1.055153885937e+006 1.055153885937e+006 1.055153885937e+006 1.055153885937e+006 1.055153885937e+006 1.055153885937e+006 1.055153885937e+006 1.055153885937e+006 1.055153885937e+006 1.053899606828e+006 1.053899606828e+006 1.053899606828e+006 1.053899606828e+006 1.053899606828e+006 1.053899606828e+006 1.053899606828e+006 1.053899606828e+006 1.053899606828e+006 1.052645384591e+006 1.052645384591e+006 1.052645384591e+006 1.052645384591e+006 1.052645384591e+006 1.052645384591e+006 1.052645384591e+006 1.052645384591e+006 1.052645384591e+006 1.051391217602e+006 1.051391217601e+006 1.051391217601e+006 1.051391217601e+006 1.051391217601e+006 1.051391217601e+006 1.051391217601e+006 1.051391217601e+006 1.051391217601e+006 1.050137104248e+006 1.050137104248e+006 1.050137104248e+006 1.050137104248e+006 1.050137104248e+006 1.050137104248e+006 1.050137104248e+006 1.050137104248e+006 1.050137104248e+006 1.048883042936e+006 1.048883042936e+006 1.048883042936e+006 1.048883042936e+006 1.048883042936e+006 1.048883042936e+006 1.048883042936e+006 1.048883042936e+006 1.048883042936e+006 1.047629032086e+006 1.047629032086e+006 1.047629032086e+006 1.047629032086e+006 1.047629032086e+006 1.047629032086e+006 1.047629032086e+006 1.047629032086e+006 1.047629032086e+006 1.046375070135e+006 1.046375070135e+006 1.046375070135e+006 1.046375070135e+006 1.046375070135e+006 1.046375070135e+006 1.046375070135e+006 1.046375070135e+006 1.046375070135e+006 1.045121155535e+006 1.045121155535e+006 1.045121155535e+006 1.045121155535e+006 1.045121155535e+006 1.045121155535e+006 1.045121155535e+006 1.045121155535e+006 1.045121155535e+006 1.043867286756e+006 1.043867286756e+006 1.043867286756e+006 1.043867286756e+006 1.043867286756e+006 1.043867286756e+006 1.043867286756e+006 1.043867286756e+006 1.043867286756e+006 1.042613462283e+006 1.042613462283e+006 1.042613462283e+006 1.042613462283e+006 1.042613462283e+006 1.042613462283e+006 1.042613462283e+006 1.042613462283e+006 1.042613462283e+006 1.041359680618e+006 1.041359680618e+006 1.041359680618e+006 1.041359680618e+006 1.041359680618e+006 1.041359680618e+006 1.041359680618e+006 1.041359680618e+006 1.041359680618e+006 1.040105940279e+006 1.040105940279e+006 1.040105940279e+006 1.040105940279e+006 1.040105940279e+006 1.040105940279e+006 1.040105940279e+006 1.040105940279e+006 1.040105940279e+006 1.038852239802e+006 1.038852239802e+006 1.038852239802e+006 1.038852239802e+006 1.038852239802e+006 1.038852239802e+006 1.038852239801e+006 1.038852239801e+006 1.038852239801e+006 1.037598577736e+006 1.037598577736e+006 1.037598577736e+006 1.037598577736e+006 1.037598577736e+006 1.037598577736e+006 1.037598577736e+006 1.037598577736e+006 1.037598577736e+006 1.036344952651e+006 1.036344952651e+006 1.036344952651e+006 1.036344952651e+006 1.036344952651e+006 1.036344952651e+006 1.036344952650e+006 1.036344952650e+006 1.036344952650e+006 1.035091363129e+006 1.035091363129e+006 1.035091363129e+006 1.035091363129e+006 1.035091363129e+006 1.035091363129e+006 1.035091363129e+006 1.035091363129e+006 1.035091363129e+006 1.033837807771e+006 1.033837807771e+006 1.033837807771e+006 1.033837807771e+006 1.033837807771e+006 1.033837807771e+006 1.033837807771e+006 1.033837807771e+006 1.033837807771e+006 1.032584285194e+006 1.032584285194e+006 1.032584285194e+006 1.032584285194e+006 1.032584285194e+006 1.032584285194e+006 1.032584285194e+006 1.032584285194e+006 1.032584285194e+006 1.031330794028e+006 1.031330794028e+006 1.031330794028e+006 1.031330794028e+006 1.031330794028e+006 1.031330794028e+006 1.031330794028e+006 1.031330794028e+006 1.031330794028e+006 1.030077332922e+006 1.030077332922e+006 1.030077332922e+006 1.030077332922e+006 1.030077332922e+006 1.030077332922e+006 1.030077332922e+006 1.030077332922e+006 1.030077332922e+006 1.028823900538e+006 1.028823900538e+006 1.028823900538e+006 1.028823900538e+006 1.028823900538e+006 1.028823900538e+006 1.028823900538e+006 1.028823900538e+006 1.028823900538e+006 1.027570495553e+006 1.027570495553e+006 1.027570495553e+006 1.027570495553e+006 1.027570495553e+006 1.027570495553e+006 1.027570495553e+006 1.027570495553e+006 1.027570495553e+006 1.026317116659e+006 1.026317116659e+006 1.026317116659e+006 1.026317116659e+006 1.026317116659e+006 1.026317116659e+006 1.026317116659e+006 1.026317116659e+006 1.026317116659e+006 1.025063762563e+006 1.025063762563e+006 1.025063762563e+006 1.025063762563e+006 1.025063762563e+006 1.025063762563e+006 1.025063762563e+006 1.025063762563e+006 1.025063762563e+006 1.023810431985e+006 1.023810431985e+006 1.023810431985e+006 1.023810431985e+006 1.023810431985e+006 1.023810431985e+006 1.023810431985e+006 1.023810431985e+006 1.023810431985e+006 1.022557123658e+006 1.022557123658e+006 1.022557123658e+006 1.022557123658e+006 1.022557123658e+006 1.022557123658e+006 1.022557123658e+006 1.022557123658e+006 1.022557123658e+006 1.021303836328e+006 1.021303836328e+006 1.021303836328e+006 1.021303836328e+006 1.021303836328e+006 1.021303836328e+006 1.021303836328e+006 1.021303836328e+006 1.021303836328e+006 1.020050568754e+006 1.020050568754e+006 1.020050568754e+006 1.020050568754e+006 1.020050568754e+006 1.020050568754e+006 1.020050568754e+006 1.020050568754e+006 1.020050568754e+006 1.018797319706e+006 1.018797319706e+006 1.018797319706e+006 1.018797319706e+006 1.018797319706e+006 1.018797319706e+006 1.018797319706e+006 1.018797319706e+006 1.018797319706e+006 1.017544087967e+006 1.017544087967e+006 1.017544087967e+006 1.017544087967e+006 1.017544087967e+006 1.017544087967e+006 1.017544087967e+006 1.017544087967e+006 1.017544087967e+006 1.016290872328e+006 1.016290872328e+006 1.016290872328e+006 1.016290872328e+006 1.016290872328e+006 1.016290872328e+006 1.016290872328e+006 1.016290872328e+006 1.016290872328e+006 1.015037671591e+006 1.015037671591e+006 1.015037671591e+006 1.015037671591e+006 1.015037671591e+006 1.015037671591e+006 1.015037671591e+006 1.015037671591e+006 1.015037671591e+006 1.013784484569e+006 1.013784484569e+006 1.013784484569e+006 1.013784484569e+006 1.013784484569e+006 1.013784484569e+006 1.013784484569e+006 1.013784484569e+006 1.013784484569e+006 1.012531310083e+006 1.012531310083e+006 1.012531310083e+006 1.012531310083e+006 1.012531310083e+006 1.012531310083e+006 1.012531310083e+006 1.012531310083e+006 1.012531310083e+006 1.011278146959e+006 1.011278146959e+006 1.011278146959e+006 1.011278146959e+006 1.011278146959e+006 1.011278146959e+006 1.011278146959e+006 1.011278146959e+006 1.011278146959e+006 1.010024994036e+006 1.010024994036e+006 1.010024994036e+006 1.010024994036e+006 1.010024994036e+006 1.010024994036e+006 1.010024994036e+006 1.010024994036e+006 1.010024994036e+006 1.008771850155e+006 1.008771850155e+006 1.008771850155e+006 1.008771850155e+006 1.008771850155e+006 1.008771850155e+006 1.008771850155e+006 1.008771850155e+006 1.008771850155e+006 1.007518714164e+006 1.007518714164e+006 1.007518714164e+006 1.007518714164e+006 1.007518714164e+006 1.007518714164e+006 1.007518714164e+006 1.007518714164e+006 1.007518714164e+006 1.006265584918e+006 1.006265584918e+006 1.006265584918e+006 1.006265584918e+006 1.006265584918e+006 1.006265584918e+006 1.006265584918e+006 1.006265584918e+006 1.006265584918e+006 1.005012461275e+006 1.005012461275e+006 1.005012461275e+006 1.005012461275e+006 1.005012461275e+006 1.005012461275e+006 1.005012461275e+006 1.005012461275e+006 1.005012461275e+006 1.003759342096e+006 1.003759342096e+006 1.003759342096e+006 1.003759342096e+006 1.003759342096e+006 1.003759342096e+006 1.003759342096e+006 1.003759342096e+006 1.003759342096e+006 1.002506226246e+006 1.002506226246e+006 1.002506226246e+006 1.002506226246e+006 1.002506226246e+006 1.002506226246e+006 1.002506226246e+006 1.002506226246e+006 1.002506226246e+006 1.001253112591e+006 1.001253112591e+006 1.001253112591e+006 1.001253112591e+006 1.001253112591e+006 1.001253112591e+006 1.001253112591e+006 1.001253112591e+006 1.001253112591e+006 1.000000000000e+006 1.000000000000e+006 1.000000000000e+006 1.000000000000e+006 1.000000000000e+006 1.000000000000e+006 1.000000000000e+006 1.000000000000e+006 1.000000000000e+006 
        </DataArray>
        <DataArray type="Float64" Name="MOLAR_FRACTION" format="ascii">