<?xml version="1.0"?>
<VTKFile type="UnstructuredGrid" version="0.1" byte_order="LittleEndian">
  <UnstructuredGrid>
    <Piece NumberOfPoints="909" NumberOfCells="800">
      <Points>
        <DataArray type="Float64" NumberOfComponents="3" format="ascii">
          0.000000000000e+000 0.000000000000e+000 0.000000000000e+000
          2.000000000000e+000 0.000000000000e+000 0.000000000000e+000
          2.000000000000e+000 2.500000000000e+000 0.000000000000e+000
          0.000000000000e+000 2.500000000000e+000 0.000000000000e+000
          2.000000000000e+000 5.000000000000e+000 0.000000000000e+000
          0.000000000000e+000 5.000000000000e+000 0.000000000000e+000
          2.000000000000e+000 7.500000000000e+000 0.000000000000e+000
          0.000000000000e+000 7.500000000000e+000 0.000000000000e+000
          2.000000000000e+000 1.000000000000e+001 0.000000000000e+000
          0.000000000000e+000 1.000000000000e+001 0.000000000000e+000
          2.000000000000e+000 1.250000000000e+001 0.000000000000e+000
          0.000000000000e+000 1.250000000000e+001 0.000000000000e+000
          2.000000000000e+000 1.500000000000e+001 0.000000000000e+000
          0.000000000000e+000 1.500000000000e+001 0.000000000000e+000
          2.000000000000e+000 1.750000000000e+001 0.000000000000e+000
          0.000000000000e+000 1.750000000000e+001 0.000000000000e+000
          2.000000000000e+000 2.000000000000e+001 0.000000000000e+000
          0.000000000000e+000 2.000000000000e+001 0.000000000000e+000
          4.000000000000e+000 0.000000000000e+000 0.000000000000e+000
          4.000000000000e+000 2.500000000000e+000 0.000000000000e+000
          4.000000000000e+000 5.000000000000e+000 0.000000000000e+000
          4.000000000000e+000 7.500000000000e+000 0.000000000000e+000
          4.000000000000e+000 1.000000000000e+001 0.000000000000e+000
          4.000000000000e+000 1.250000000000e+001 0.000000000000e+000
          4.000000000000e+000 1.500000000000e+001 0.000000000000e+000
          4.000000000000e+000 1.750000000000e+001 0.000000000000e+000
          4.000000000000e+000 2.000000000000e+001 0.000000000000e+000
          6.000000000000e+000 0.000000000000e+000 0.000000000000e+000
          6.000000000000e+000 2.500000000000e+000 0.000000000000e+000
          6.000000000000e+000 5.000000000000e+000 0.000000000000e+000
          6.000000000000e+000 7.500000000000e+000 0.000000000000e+000
          6.000000000000e+000 1.000000000000e+001 0.000000000000e+000
          6.000000000000e+000 1.250000000000e+001 0.000000000000e+000
          6.000000000000e+000 1.500000000000e+001 0.000000000000e+000
          6.000000000000e+000 1.750000000000e+001 0.000000000000e+000
          6.000000000000e+000 2.000000000000e+001 0.000000000000e+000
          8.000000000000e+000 0.000000000000e+000 0.000000000000e+000
          8.000000000000e+000 2.500000000000e+000 0.000000000000e+000
          8.000000000000e+000 5.000000000000e+000 0.000000000000e+000
          8.000000000000e+000 7.500000000000e+000 0.000000000000e+000
          8.000000000000e+000 1.000000000000e+001 0.000000000000e+000
          8.000000000000e+000 1.250000000000e+001 0.000000000000e+000
          8.000000000000e+000 1.500000000000e+001 0.000000000000e+000
          8.000000000000e+000 1.750000000000e+001 0.000000000000e+000
          8.000000000000e+000 2.000000000000e+001 0.000000000000e+000
          1.000000000000e+001 0.000000000000e+000 0.000000000000e+000
          1.000000000000e+001 2.500000000000e+000 0.000000000000e+000
          1.000000000000e+001 5.000000000000e+000 0.000000000000e+000
          1.000000000000e+001 7.500000000000e+000 0.000000000000e+000
          1.000000000000e+001 1.000000000000e+001 0.000000000000e+000
          1.000000000000e+001 1.250000000000e+001 0.000000000000e+000
          1.000000000000e+001 1.500000000000e+001 0.000000000000e+000
          1.000000000000e+001 1.750000000000e+001 0.000000000000e+000
          1.000000000000e+001 2.000000000000e+001 0.000000000000e+000
          1.200000000000e+001 0.000000000000e+000 0.000000000000e+000
          1.200000000000e+001 2.500000000000e+000 0.000000000000e+000
          1.200000000000e+001 5.000000000000e+000 0.000000000000e+000
          1.200000000000e+001 7.500000000000e+000 0.000000000000e+000
          1.200000000000e+001 1.000000000000e+001 0.000000000000e+000
          1.200000000000e+001 1.250000000000e+001 0.000000000000e+000
          1.200000000000e+001 1.500000000000e+001 0.000000000000e+000
          1.200000000000e+001 1.750000000000e+001 0.000000000000e+000
          1.200000000000e+001 2.000000000000e+001 0.000000000000e+000
          1.400000000000e+001 0.000000000000e+000 0.000000000000e+000
          1.400000000000e+001 2.500000000000e+000 0.000000000000e+000
          1.400000000000e+001 5.000000000000e+000 0.000000000000e+000
          1.400000000000e+001 7.500000000000e+000 0.000000000000e+000
          1.400000000000e+001 1.000000000000e+001 0.000000000000e+000
          1.400000000000e+001 1.250000000000e+001 0.000000000000e+000
          1.400000000000e+001 1.500000000000e+001 0.000000000000e+000
          1.400000000000e+001 1.750000000000e+001 0.000000000000e+000
          1.400000000000e+001 2.000000000000e+001 0.000000000000e+000
          1.600000000000e+001 0.000000000000e+000 0.000000000000e+000
          1.600000000000e+001 2.500000000000e+000 0.000000000000e+000
          1.600000000000e+001 5.000000000000e+000 0.000000000000e+000
          1.600000000000e+001 7.500000000000e+000 0.000000000000e+000
          1.600000000000e+001 1.000000000000e+001 0.000000000000e+000
          1.600000000000e+001 1.250000000000e+001 0.000000000000e+000
          1.600000000000e+001 1.500000000000e+001 0.000000000000e+000
          1.600000000000e+001 1.750000000000e+001 0.000000000000e+000
          1.600000000000e+001 2.000000000000e+001 0.000000000000e+000
          1.800000000000e+001 0.000000000000e+000 0.000000000000e+000
          1.800000000000e+001 2.500000000000e+000 0.000000000000e+000
          1.800000000000e+001 5.000000000000e+000 0.000000000000e+000
          1.800000000000e+001 7.500000000000e+000 0.000000000000e+000
          1.800000000000e+001 1.000000000000e+001 0.000000000000e+000
          1.800000000000e+001 1.250000000000e+001 0.000000000000e+000
          1.800000000000e+001 1.500000000000e+001 0.000000000000e+000
          1.800000000000e+001 1.750000000000e+001 0.000000000000e+000
          1.800000000000e+001 2.000000000000e+001 0.000000000000e+000
          2.000000000000e+001 0.000000000000e+000 0.000000000000e+000
          2.000000000000e+001 2.500000000000e+000 0.000000000000e+000
          2.000000000000e+001 5.000000000000e+000 0.000000000000e+000
          2.000000000000e+001 7.500000000000e+000 0.000000000000e+000
          2.000000000000e+001 1.000000000000e+001 0.000000000000e+000
          2.000000000000e+001 1.250000000000e+001 0.000000000000e+000
          2.000000000000e+001 1.500000000000e+001 0.000000000000e+000
          2.000000000000e+001 1.750000000000e+001 0.000000000000e+000
          2.000000000000e+001 2.000000000000e+001 0.000000000000e+000
          2.200000000000e+001 0.000000000000e+000 0.000000000000e+000
          2.200000000000e+001 2.500000000000e+000 0.000000000000e+000
          2.200000000000e+001 5.000000000000e+000 0.000000000000e+000
          2.200000000000e+001 7.500000000000e+000 0.000000000000e+000
          2.200000000000e+001 1.000000000000e+001 0.000000000000e+000
          2.200000000000e+001 1.250000000000e+001 0.000000000000e+000
          2.200000000000e+001 1.500000000000e+001 0.000000000000e+000
          2.200000000000e+001 1.750000000000e+001 0.000000000000e+000
          2.200000000000e+001 2.000000000000e+001 0.000000000000e+000
          2.400000000000e+001 0.000000000000e+000 0.000000000000e+000
          2.400000000000e+001 2.500000000000e+000 0.000000000000e+000
          2.400000000000e+001 5.000000000000e+000 0.000000000000e+000
          2.400000000000e+001 7.500000000000e+000 0.000000000000e+000
          2.400000000000e+001 1.000000000000e+001 0.000000000000e+000
          2.400000000000e+001 1.250000000000e+001 0.000000000000e+000
          2.400000000000e+001 1.500000000000e+001 0.000000000000e+000
          2.400000000000e+001 1.750000000000e+001 0.000000000000e+000
          2.400000000000e+001 2.000000000000e+001 0.000000000000e+000
          2.600000000000e+001 0.000000000000e+000 0.000000000000e+000
          2.600000000000e+001 2.500000000000e+000 0.000000000000e+000
          2.600000000000e+001 5.000000000000e+000 0.000000000000e+000
          2.600000000000e+001 7.500000000000e+000 0.000000000000e+000
          2.600000000000e+001 1.000000000000e+001 0.000000000000e+000
          2.600000000000e+001 1.250000000000e+001 0.000000000000e+000
          2.600000000000e+001 1.500000000000e+001 0.000000000000e+000
          2.600000000000e+001 1.750000000000e+001 0.000000000000e+000
          2.600000000000e+001 2.000000000000e+001 0.000000000000e+000
          2.800000000000e+001 0.000000000000e+000 0.000000000000e+000
          2.800000000000e+001 2.500000000000e+000 0.000000000000e+000
          2.800000000000e+001 5.000000000000e+000 0.000000000000e+000
          2.800000000000e+001 7.500000000000e+000 0.000000000000e+000
          2.800000000000e+001 1.000000000000e+001 0.000000000000e+000
          2.800000000000e+001 1.250000000000e+001 0.000000000000e+000
          2.800000000000e+001 1.500000000000e+001 0.000000000000e+000
          2.800000000000e+001 1.750000000000e+001 0.000000000000e+000
          2.800000000000e+001 2.000000000000e+001 0.000000000000e+000
          3.000000000000e+001 0.000000000000e+000 0.000000000000e+000
          3.000000000000e+001 2.500000000000e+000 0.000000000000e+000
          3.000000000000e+001 5.000000000000e+000 0.000000000000e+000
          3.000000000000e+001 7.500000000000e+000 0.000000000000e+000
[...]
      <PointData Scalars="LIQUID_PRESSURE">
        <DataArray type="Float64" Name="LIQUID_PRESSURE" format="ascii">
          1.000102056549e+006 1.000095146860e+006 1.000095146856e+006 1.000102056557e+006 1.000095146873e+006 1.000102056572e+006 1.000095146873e+006 1.000102056581e+006 1.000095146886e+006 1.000102056579e+006 1.000095146882e+006 1.000102056577e+006 1.000095146881e+006 1.000102056561e+006 1.000095146882e+006 1.000102056569e+006 1.000095146879e+006 1.000102056572e+006 1.000088547413e+006 1.000088547418e+006 1.000088547419e+006 1.000088547422e+006 1.000088547426e+006 1.000088547420e+006 1.000088547423e+006 1.000088547428e+006 1.000088547429e+006 1.000082256522e+006 1.000082256527e+006 1.000082256531e+006 1.000082256537e+006 1.000082256547e+006 1.000082256541e+006 1.000082256547e+006 1.000082256551e+006 1.000082256549e+006 1.000076272141e+006 1.000076272147e+006 1.000076272155e+006 1.000076272158e+006 1.000076272165e+006 1.000076272163e+006 1.000076272168e+006 1.000076272170e+006 1.000076272164e+006 1.000070590889e+006 1.000070590891e+006 1.000070590897e+006 1.000070590905e+006 1.000070590899e+006 1.000070590910e+006 1.000070590912e+006 1.000070590912e+006 1.000070590916e+006 1.000065208725e+006 1.000065208731e+006 1.000065208738e+006 1.000065208741e+006 1.000065208743e+006 1.000065208752e+006 1.000065208758e+006 1.000065208761e+006 1.000065208763e+006 1.000060120890e+006 1.000060120894e+006 1.000060120898e+006 1.000060120901e+006 1.000060120911e+006 1.000060120914e+006 1.000060120922e+006 1.000060120925e+006 1.000060120933e+006 1.000055321404e+006 1.000055321403e+006 1.000055321405e+006 1.000055321409e+006 1.000055321419e+006 1.000055321426e+006 1.000055321431e+006 1.000055321439e+006 1.000055321439e+006 1.000050804091e+006 1.000050804089e+006 1.000050804091e+006 1.000050804093e+006 1.000050804101e+006 1.000050804106e+006 1.000050804113e+006 1.000050804120e+006 1.000050804121e+006 1.000046561821e+006 1.000046561823e+006 1.000046561822e+006 1.000046561826e+006 1.000046561829e+006 1.000046561836e+006 1.000046561838e+006 1.000046561847e+006 1.000046561849e+006 1.000042586630e+006 1.000042586630e+006 1.000042586631e+006 1.000042586631e+006 1.000042586634e+006 1.000042586637e+006 1.000042586642e+006 1.000042586647e+006 1.000042586651e+006 1.000038870255e+006 1.000038870256e+006 1.000038870258e+006 1.000038870260e+006 1.000038870259e+006 1.000038870263e+006 1.000038870266e+006 1.000038870267e+006 1.000038870270e+006 1.000035404001e+006 1.000035404000e+006 1.000035404004e+006 1.000035404006e+006 1.000035404008e+006 1.000035404011e+006 1.000035404009e+006 1.000035404011e+006 1.000035404011e+006 1.000032178616e+006 1.000032178618e+006 1.000032178620e+006 1.000032178622e+006 1.000032178626e+006 1.000032178628e+006 1.000032178627e+006 1.000032178628e+006 1.000032178626e+006 1.000029184419e+006 1.000029184420e+006 1.000029184424e+006 1.000029184426e+006 1.000029184430e+006 1.000029184431e+006 1.000029184432e+006 1.000029184432e+006 1.000029184431e+006 1.000026411452e+006 1.000026411453e+006 1.000026411456e+006 1.000026411458e+006 1.000026411461e+006 1.000026411462e+006 1.000026411465e+006 1.000026411464e+006 1.000026411465e+006 1.000023849587e+006 1.000023849588e+006 1.000023849590e+006 1.000023849592e+006 1.000023849594e+006 1.000023849595e+006 1.000023849596e+006 1.000023849596e+006 1.000023849597e+006 1.000021488562e+006 1.000021488562e+006 1.000021488564e+006 1.000021488566e+006 1.000021488568e+006 1.000021488571e+006 1.000021488570e+006 1.000021488572e+006 1.000021488572e+006 1.000019318043e+006 1.000019318043e+006 1.000019318044e+006 1.000019318045e+006 1.000019318047e+006 1.000019318048e+006 1.000019318050e+006 1.000019318051e+006 1.000019318052e+006 1.000017327659e+006 1.000017327659e+006 1.000017327659e+006 1.000017327661e+006 1.000017327661e+006 1.000017327663e+006 1.000017327663e+006 1.000017327665e+006 1.000017327665e+006 1.000015507051e+006 1.000015507051e+006 1.000015507051e+006 1.000015507052e+006 1.000015507053e+006 1.000015507053e+006 1.000015507054e+006 1.000015507055e+006 1.000015507055e+006 1.000013845961e+006 1.000013845960e+006 1.000013845961e+006 1.000013845961e+006 1.000013845962e+006 1.000013845962e+006 1.000013845963e+006 1.000013845963e+006 1.000013845963e+006 1.000012334280e+006 1.000012334280e+006 1.000012334280e+006 1.000012334280e+006 1.000012334281e+006 1.000012334281e+006 1.000012334282e+006 1.000012334282e+006 1.000012334282e+006 1.000010962112e+006 1.000010962112e+006 1.000010962113e+006 1.000010962113e+006 1.000010962113e+006 1.000010962113e+006 1.000010962114e+006 1.000010962114e+006 1.000010962114e+006 1.000009719815e+006 1.000009719815e+006 1.000009719815e+006 1.000009719816e+006 1.000009719815e+006 1.000009719816e+006 1.000009719816e+006 1.000009719816e+006 1.000009719816e+006 1.000008598037e+006 1.000008598037e+006 1.000008598037e+006 1.000008598037e+006 1.000008598037e+006 1.000008598037e+006 1.000008598037e+006 1.000008598037e+006 1.000008598037e+006 1.000007587753e+006 1.000007587753e+006 1.000007587753e+006 1.000007587753e+006 1.000007587752e+006 1.000007587752e+006 1.000007587753e+006 1.000007587753e+006 1.000007587753e+006 1.000006680296e+006 1.000006680296e+006 1.000006680296e+006 1.000006680296e+006 1.000006680295e+006 1.000006680295e+006 1.000006680295e+006 1.000006680296e+006 1.000006680295e+006 1.000005867372e+006 1.000005867372e+006 1.000005867372e+006 1.000005867372e+006 1.000005867372e+006 1.000005867372e+006 1.000005867372e+006 1.000005867372e+006 1.000005867372e+006 1.000005141080e+006 1.000005141080e+006 1.000005141080e+006 1.000005141080e+006 1.000005141080e+006 1.000005141080e+006 1.000005141080e+006 1.000005141080e+006 1.000005141080e+006 1.000004493929e+006 1.000004493929e+006 1.000004493929e+006 1.000004493929e+006 1.000004493929e+006 1.000004493928e+006 1.000004493928e+006 1.000004493928e+006 1.000004493928e+006 1.000003918840e+006 1.000003918840e+006 1.000003918840e+006 1.000003918840e+006 1.000003918840e+006 1.000003918840e+006 1.000003918840e+006 1.000003918840e+006 1.000003918840e+006 1.000003409168e+006 1.000003409168e+006 1.000003409168e+006 1.000003409168e+006 1.000003409168e+006 1.000003409168e+006 1.000003409168e+006 1.000003409168e+006 1.000003409168e+006 1.000002958688e+006 1.000002958688e+006 1.000002958687e+006 1.000002958687e+006 1.000002958687e+006 1.000002958687e+006 1.000002958687e+006 1.000002958687e+006 1.000002958687e+006 1.000002561598e+006 1.000002561598e+006 1.000002561598e+006 1.000002561598e+006 1.000002561598e+006 1.000002561598e+006 1.000002561598e+006 1.000002561597e+006 1.000002561597e+006 1.000002212514e+006 1.000002212514e+006 1.000002212514e+006 1.000002212514e+006 1.000002212514e+006 1.000002212514e+006 1.000002212514e+006 1.000002212514e+006 1.000002212514e+006 1.000001906460e+006 1.000001906460e+006 1.000001906460e+006 1.000001906460e+006 1.000001906459e+006 1.000001906459e+006 1.000001906459e+006 1.000001906459e+006 1.000001906459e+006 1.000001638853e+006 1.000001638853e+006 1.000001638853e+006 1.000001638853e+006 1.000001638853e+006 1.000001638853e+006 1.000001638853e+006 1.000001638853e+006 1.000001638853e+006 1.000001405491e+006 1.000001405491e+006 1.000001405491e+006 1.000001405491e+006 1.000001405491e+006 1.000001405491e+006 1.000001405491e+006 1.000001405491e+006 1.000001405491e+006 1.000001202537e+006 1.000001202537e+006 1.000001202537e+006 1.000001202537e+006 1.000001202537e+006 1.000001202537e+006 1.000001202537e+006 1.000001202537e+006 1.000001202537e+006 1.000001026497e+006 1.000001026497e+006 1.000001026497e+006 1.000001026497e+006 1.000001026497e+006 1.000001026497e+006 1.000001026497e+006 1.000001026497e+006 1.000001026497e+006 1.000000874206e+006 1.000000874206e+006 1.000000874206e+006 1.000000874206e+006 1.000000874206e+006 1.000000874206e+006 1.000000874206e+006 1.000000874206e+006 1.000000874206e+006 1.000000742806e+006 1.000000742806e+006 1.000000742806e+006 1.000000742806e+006 1.000000742806e+006 1.000000742806e+006 1.000000742806e+006 1.000000742806e+006 1.000000742806e+006 1.000000629727e+006 1.000000629727e+006 1.000000629727e+006 1.000000629727e+006 1.000000629727e+006 1.000000629727e+006 1.000000629727e+006 1.000000629727e+006 1.000000629727e+006 1.000000532663e+006 1.000000532663e+006 1.000000532663e+006 1.000000532663e+006 1.000000532663e+006 1.000000532663e+006 1.000000532663e+006 1.000000532663e+006 1.000000532663e+006 1.000000449560e+006 1.000000449560e+006 1.000000449560e+006 1.000000449560e+006 1.000000449560e+006 1.000000449560e+006 1.000000449560e+006 1.000000449560e+006 1.000000449560e+006 1.000000378587e+006 1.000000378587e+006 1.000000378587e+006 1.000000378587e+006 1.000000378587e+006 1.000000378587e+006 1.000000378587e+006 1.000000378587e+006 1.000000378587e+006 1.000000318125e+006 1.000000318125e+006 1.000000318125e+006 1.000000318125e+006 1.000000318125e+006 1.000000318125e+006 1.000000318125e+006 1.000000318125e+006 1.000000318125e+006 1.000000266743e+006 1.000000266743e+006 1.000000266743e+006 1.000000266743e+006 1.000000266743e+006 1.000000266743e+006 1.000000266743e+006 1.000000266743e+006 1.000000266743e+006 1.000000223182e+006 1.000000223182e+006 1.000000223182e+006 1.000000223182e+006 1.000000223182e+006 1.000000223182e+006 1.000000223182e+006 1.000000223182e+006 1.000000223182e+006 1.000000186339e+006 1.000000186339e+006 1.000000186339e+006 1.000000186339e+006 1.000000186339e+006 1.000000186339e+006 1.000000186339e+006 1.000000186339e+006 1.000000186339e+006 1.000000155250e+006 1.000000155250e+006 1.000000155250e+006 1.000000155250e+006 1.000000155250e+006 1.000000155250e+006 1.000000155250e+006 1.000000155250e+006 1.000000155250e+006 1.000000129077e+006 1.000000129077e+006 1.000000129077e+006 1.000000129077e+006 1.000000129077e+006 1.000000129077e+006 1.000000129077e+006 1.000000129077e+006 1.000000129077e+006 1.000000107092e+006 1.000000107092e+006 1.000000107092e+006 1.000000107092e+006 1.000000107092e+006 1.000000107092e+006 1.000000107092e+006 1.000000107092e+006 1.000000107092e+006 1.000000088665e+006 1.000000088665e+006 1.000000088665e+006 1.000000088665e+006 1.000000088665e+006 1.000000088665e+006 1.000000088665e+006 1.000000088665e+006 1.000000088665e+006 1.000000073253e+006 1.000000073253e+006 1.000000073253e+006 1.000000073253e+006 1.000000073253e+006 1.000000073253e+006 1.000000073253e+006 1.000000073253e+006 1.000000073253e+006 1.000000060392e+006 1.000000060392e+006 1.000000060392e+006 1.000000060392e+006 1.000000060392e+006 1.000000060392e+006 1.000000060392e+006 1.000000060392e+006 1.000000060392e+006 1.000000049680e+006 1.000000049680e+006 1.000000049680e+006 1.000000049680e+006 1.000000049680e+006 1.000000049680e+006 1.000000049680e+006 1.000000049680e+006 1.000000049680e+006 1.000000040777e+006 1.000000040777e+006 1.000000040777e+006 1.000000040777e+006 1.000000040777e+006 1.000000040777e+006 1.000000040777e+006 1.000000040777e+006 1.000000040777e+006 1.000000033393e+006 1.000000033393e+006 1.000000033393e+006 1.000000033393e+006 1.000000033393e+006 1.000000033393e+006 1.000000033393e+006 1.000000033393e+006 1.000000033393e+006 1.000000027280e+006 1.000000027280e+006 1.000000027280e+006 1.000000027280e+006 1.000000027280e+006 1.000000027280e+006 1.000000027280e+006 1.000000027280e+006 1.000000027280e+006 1.000000022230e+006 1.000000022230e+006 1.000000022230e+006 1.000000022230e+006 1.000000022230e+006 1.000000022230e+006 1.000000022230e+006 1.000000022230e+006 1.000000022230e+006 1.000000018066e+006 1.000000018066e+006 1.000000018066e+006 1.000000018066e+006 1.000000018066e+006 1.000000018066e+006 1.000000018066e+006 1.000000018066e+006 1.000000018066e+006 1.000000014639e+006 1.000000014639e+006 1.000000014639e+006 1.000000014639e+006 1.000000014639e+006 1.000000014639e+006 1.000000014639e+006 1.000000014639e+006 1.000000014639e+006 1.000000011825e+006 1.000000011825e+006 1.000000011825e+006 1.000000011825e+006 1.000000011825e+006 1.000000011825e+006 1.000000011825e+006 1.000000011825e+006 1.000000011825e+006 1.000000009518e+006 1.000000009518e+006 1.000000009518e+006 1.000000009518e+006 1.000000009518e+006 1.000000009518e+006 1.000000009518e+006 1.000000009518e+006 1.000000009518e+006 1.000000007630e+006 1.000000007630e+006 1.000000007630e+006 1.000000007630e+006 1.000000007630e+006 1.000000007630e+006 1.000000007630e+006 1.000000007630e+006 1.000000007630e+006 1.000000006089e+006 1.000000006089e+006 1.000000006089e+006 1.000000006089e+006 1.000000006089e+006 1.000000006089e+006 1.000000006089e+006 1.000000006089e+006 1.000000006089e+006 1.000000004834e+006 1.000000004834e+006 1.000000004834e+006 1.000000004834e+006 1.000000004834e+006 1.000000004834e+006 1.000000004834e+006 1.000000004834e+006 1.000000004834e+006 1.000000003814e+006 1.000000003814e+006 1.000000003814e+006 1.000000003814e+006 1.000000003814e+006 1.000000003814e+006 1.000000003814e+006 1.000000003814e+006 1.000000003814e+006 1.000000002986e+006 1.000000002986e+006 1.000000002986e+006 1.000000002986e+006 1.000000002986e+006 1.000000002986e+006 1.000000002986e+006 1.000000002986e+006 1.000000002986e+006 1.000000002317e+006 1.000000002317e+006 1.000000002317e+006 1.000000002317e+006 1.000000002317e+006 1.000000002317e+006 1.000000002317e+006 1.000000002317e+006 1.000000002317e+006 1.000000001777e+006 1.000000001777e+006 1.000000001777e+006 1.000000001777e+006 1.000000001777e+006 1.000000001777e+006 1.000000001777e+006 1.000000001777e+006 1.000000001777e+006 1.000000001344e+006 1.000000001344e+006 1.000000001344e+006 1.000000001344e+006 1.000000001344e+006 1.000000001344e+006 1.000000001344e+006 1.000000001344e+006 1.000000001344e+006 1.000000000996e+006 1.000000000996e+006 1.000000000996e+006 1.000000000996e+006 1.000000000996e+006 1.000000000996e+006 1.000000000996e+006 1.000000000996e+006 1.000000000996e+006 1.000000000719e+006 1.000000000719e+006 1.000000000719e+006 1.000000000719e+006 1.000000000719e+006 1.000000000719e+006 1.000000000719e+006 1.000000000719e+006 1.000000000719e+006 1.000000000499e+006 1.000000000499e+006 1.000000000499e+006 1.000000000499e+006 1.000000000499e+006 1.000000000499e+006 1.000000000499e+006 1.000000000499e+006 1.000000000499e+006 1.000000000325e+006 1.000000000325e+006 1.000000000325e+006 1.000000000325e+006 1.000000000325e+006 1.000000000325e+006 1.000000000325e+006 1.000000000325e+006 1.000000000325e+006 1.000000000189e+006 1.000000000189e+006 1.000000000189e+006 1.000000000189e+006 1.000000000189e+006 1.000000000189e+006 1.000000000189e+006 1.000000000189e+006 1.000000000189e+006 1.000000000084e+006 1.000000000084e+006 1.000000000084e+006 1.000000000084e+006 1.000000000084e+006 1.000000000084e+006 1.000000000084e+006 1.000000000084e+006 1.000000000084e+006 1.000000000004e+006 1.000000000004e+006 1.000000000004e+006 1.000000000004e+006 1.000000000004e+006 1.000000000004e+006 1.000000000004e+006 1.000000000004e+006 1.000000000004e+006 9.999999999432e+005 9.999999999432e+005 9.999999999432e+005 9.999999999432e+005 9.999999999432e+005 9.999999999432e+005 9.999999999432e+005 9.999999999432e+005 9.999999999432e+005 9.999999998988e+005 9.999999998988e+005 9.999999998988e+005 9.999999998988e+005 9.999999998988e+005 9.999999998988e+005 9.999999998988e+005 9.999999998988e+005 9.999999998988e+005 9.999999998675e+005 9.999999998675e+005 9.999999998675e+005 9.999999998675e+005 9.999999998675e+005 9.999999998675e+005 9.999999998675e+005 9.999999998675e+005 9.999999998675e+005 9.999999998466e+005 9.999999998466e+005 9.999999998466e+005 9.999999998466e+005 9.999999998466e+005 9.999999998466e+005 9.999999998466e+005 9.999999998466e+005 9.999999998466e+005 9.999999998341e+005 9.999999998341e+005 9.999999998341e+005 9.999999998341e+005 9.999999998341e+005 9.999999998341e+005 9.999999998341e+005 9.999999998341e+005 9.999999998341e+005 9.999999998283e+005 9.999999998283e+005 9.999999998283e+005 9.999999998283e+005 9.999999998283e+005 9.999999998283e+005 9.999999998283e+005 9.999999998283e+005 9.999999998283e+005 9.999999998280e+005 9.999999998280e+005 9.999999998280e+005 9.999999998280e+005 9.999999998280e+005 9.999999998280e+005 9.999999998280e+005 9.999999998280e+005 9.999999998280e+005 9.999999998320e+005 9.999999998320e+005 9.999999998320e+005 9.999999998320e+005 9.999999998320e+005 9.999999998320e+005 9.999999998320e+005 9.999999998320e+005 9.999999998320e+005 9.999999998395e+005 9.999999998395e+005 9.999999998395e+005 9.999999998395e+005 9.999999998395e+005 9.999999998395e+005 9.999999998395e+005 9.999999998395e+005 9.999999998395e+005 9.999999998498e+005 9.999999998498e+005 9.999999998498e+005 9.999999998498e+005 9.999999998498e+005 9.999999998498e+005 9.999999998498e+005 9.999999998498e+005 9.999999998498e+005 9.999999998622e+005 9.999999998622e+005 9.999999998622e+005 9.999999998622e+005 9.999999998622e+005 9.999999998622e+005 9.999999998622e+005 9.999999998622e+005 9.999999998622e+005 9.999999998764e+005 9.999999998764e+005 9.999999998764e+005 9.999999998764e+005 9.999999998764e+005 9.999999998764e+005 9.999999998764e+005 9.999999998764e+005 9.999999998764e+005 9.999999998919e+005 9.999999998919e+005 9.999999998919e+005 9.999999998919e+005 9.999999998919e+005 9.999999998919e+005 9.999999998919e+005 9.999999998919e+005 9.999999998919e+005 9.999999999085e+005 9.999999999085e+005 9.999999999085e+005 9.999999999085e+005 9.999999999085e+005 9.999999999085e+005 9.999999999085e+005 9.999999999085e+005 9.999999999085e+005 9.999999999259e+005 9.999999999259e+005 9.999999999259e+005 9.999999999259e+005 9.999999999259e+005 9.999999999259e+005 9.999999999259e+005 9.999999999259e+005 9.999999999259e+005 9.999999999440e+005 9.999999999440e+005 9.999999999440e+005 9.999999999440e+005 9.999999999440e+005 9.999999999440e+005 9.999999999440e+005 9.999999999440e+005 9.999999999440e+005 9.999999999624e+005 9.999999999624e+005 9.999999999624e+005 9.999999999624e+005 9.999999999624e+005 9.999999999624e+005 9.999999999624e+005 9.999999999624e+005 9.999999999624e+005 9.999999999811e+005 9.999999999811e+005 9.999999999811e+005 9.999999999811e+005 9.999999999811e+005 9.999999999811e+005 9.999999999811e+005 9.999999999811e+005 9.999999999811e+005 1.000000000000e+006 1.000000000000e+006 1.000000000000e+006 1.000000000000e+006 1.000000000000e+006 1.000000000000e+006 1.000000000000e+006 1.000000000000e+006 1.000000000000e+006 
        </DataArray>
        <DataArray type="Float64" Name="MOLAR_FRACTION" format="ascii">