<?xml version="1.0"?>
<VTKFile type="UnstructuredGrid" version="0.1" byte_order="LittleEndian">
  <UnstructuredGrid>
    <Piece NumberOfPoints="909" NumberOfCells="800">
      <Points>
        <DataArray type="Float64" NumberOfComponents="3" format="ascii">
          0.000000000000e+000 0.000000000000e+000 0.000000000000e+000
          2.000000000000e+000 0.000000000000e+000 0.000000000000e+000
          2.000000000000e+000 2.500000000000e+000 0.000000000000e+000
          0.000000000000e+000 2.500000000000e+000 0.000000000000e+000
          2.000000000000e+000 5.000000000000e+000 0.000000000000e+000
          0.000000000000e+000 5.000000000000e+000 0.000000000000e+000
          2.000000000000e+000 7.500000000000e+000 0.000000000000e+000
          0.000000000000e+000 7.500000000000e+000 0.000000000000e+000
          2.000000000000e+000 1.000000000000e+001 0.000000000000e+000
          0.000000000000e+000 1.000000000000e+001 0.000000000000e+000
          2.000000000000e+000 1.250000000000e+001 0.000000000000e+000
          0.000000000000e+000 1.250000000000e+001 0.000000000000e+000
          2.000000000000e+000 1.500000000000e+001 0.000000000000e+000
          0.000000000000e+000 1.500000000000e+001 0.000000000000e+000
          2.000000000000e+000 1.750000000000e+001 0.000000000000e+000
          0.000000000000e+000 1.750000000000e+001 0.000000000000e+000
          2.000000000000e+000 2.000000000000e+001 0.000000000000e+000
          0.000000000000e+000 2.000000000000e+001 0.000000000000e+000
          4.000000000000e+000 0.000000000000e+000 0.000000000000e+000
          4.000000000000e+000 2.500000000000e+000 0.000000000000e+000
          4.000000000000e+000 5.000000000000e+000 0.000000000000e+000
          4.000000000000e+000 7.500000000000e+000 0.000000000000e+000
          4.000000000000e+000 1.000000000000e+001 0.000000000000e+000
          4.000000000000e+000 1.250000000000e+001 0.000000000000e+000
          4.000000000000e+000 1.500000000000e+001 0.000000000000e+000
          4.000000000000e+000 1.750000000000e+001 0.000000000000e+000
          4.000000000000e+000 2.000000000000e+001 0.000000000000e+000
          6.000000000000e+000 0.000000000000e+000 0.000000000000e+000
          6.000000000000e+000 2.500000000000e+000 0.000000000000e+000
          6.000000000000e+000 5.000000000000e+000 0.000000000000e+000
          6.000000000000e+000 7.500000000000e+000 0.000000000000e+000
          6.000000000000e+000 1.000000000000e+001 0.000000000000e+000
          6.000000000000e+000 1.250000000000e+001 0.000000000000e+000
          6.000000000000e+000 1.500000000000e+001 0.000000000000e+000
          6.000000000000e+000 1.750000000000e+001 0.000000000000e+000
          6.000000000000e+000 2.000000000000e+001 0.000000000000e+000
          8.000000000000e+000 0.000000000000e+000 0.000000000000e+000
          8.000000000000e+000 2.500000000000e+000 0.000000000000e+000
          8.000000000000e+000 5.000000000000e+000 0.000000000000e+000
          8.000000000000e+000 7.500000000000e+000 0.000000000000e+000
          8.000000000000e+000 1.000000000000e+001 0.000000000000e+000
          8.000000000000e+000 1.250000000000e+001 0.000000000000e+000
          8.000000000000e+000 1.500000000000e+001 0.000000000000e+000
          8.000000000000e+000 1.750000000000e+001 0.000000000000e+000
          8.000000000000e+000 2.000000000000e+001 0.000000000000e+000
          1.000000000000e+001 0.000000000000e+000 0.000000000000e+000
          1.000000000000e+001 2.500000000000e+000 0.000000000000e+000
          1.000000000000e+001 5.000000000000e+000 0.000000000000e+000
          1.000000000000e+001 7.500000000000e+000 0.000000000000e+000
          1.000000000000e+001 1.000000000000e+001 0.000000000000e+000
          1.000000000000e+001 1.250000000000e+001 0.000000000000e+000
          1.000000000000e+001 1.500000000000e+001 0.000000000000e+000
          1.000000000000e+001 1.750000000000e+001 0.000000000000e+000
          1.000000000000e+001 2.000000000000e+001 0.000000000000e+000
          1.200000000000e+001 0.000000000000e+000 0.000000000000e+000
          1.200000000000e+001 2.500000000000e+000 0.000000000000e+000
          1.200000000000e+001 5.000000000000e+000 0.000000000000e+000
          1.200000000000e+001 7.500000000000e+000 0.000000000000e+000
          1.200000000000e+001 1.000000000000e+001 0.000000000000e+000
          1.200000000000e+001 1.250000000000e+001 0.000000000000e+000
          1.200000000000e+001 1.500000000000e+001 0.000000000000e+000
          1.200000000000e+001 1.750000000000e+001 0.000000000000e+000
          1.200000000000e+001 2.000000000000e+001 0.000000000000e+000
          1.400000000000e+001 0.000000000000e+000 0.000000000000e+000
          1.400000000000e+001 2.500000000000e+000 0.000000000000e+000
          1.400000000000e+001 5.000000000000e+000 0.000000000000e+000
          1.400000000000e+001 7.500000000000e+000 0.000000000000e+000
          1.400000000000e+001 1.000000000000e+001 0.000000000000e+000
          1.400000000000e+001 1.250000000000e+001 0.000000000000e+000
          1.400000000000e+001 1.500000000000e+001 0.000000000000e+000
          1.400000000000e+001 1.750000000000e+001 0.000000000000e+000
          1.400000000000e+001 2.000000000000e+001 0.000000000000e+000
          1.600000000000e+001 0.000000000000e+000 0.000000000000e+000
          1.600000000000e+001 2.500000000000e+000 0.000000000000e+000
          1.600000000000e+001 5.000000000000e+000 0.000000000000e+000
          1.600000000000e+001 7.500000000000e+000 0.000000000000e+000
          1.600000000000e+001 1.000000000000e+001 0.000000000000e+000
          1.600000000000e+001 1.250000000000e+001 0.000000000000e+000
          1.600000000000e+001 1.500000000000e+001 0.000000000000e+000
          1.600000000000e+001 1.750000000000e+001 0.000000000000e+000
          1.600000000000e+001 2.000000000000e+001 0.000000000000e+000
          1.800000000000e+001 0.000000000000e+000 0.000000000000e+000
          1.800000000000e+001 2.500000000000e+000 0.000000000000e+000
          1.800000000000e+001 5.000000000000e+000 0.000000000000e+000
          1.800000000000e+001 7.500000000000e+000 0.000000000000e+000
          1.800000000000e+001 1.000000000000e+001 0.000000000000e+000
          1.800000000000e+001 1.250000000000e+001 0.000000000000e+000
          1.800000000000e+001 1.500000000000e+001 0.000000000000e+000
          1.800000000000e+001 1.750000000000e+001 0.000000000000e+000
          1.800000000000e+001 2.000000000000e+001 0.000000000000e+000
          2.000000000000e+001 0.000000000000e+000 0.000000000000e+000
          2.000000000000e+001 2.500000000000e+000 0.000000000000e+000
          2.000000000000e+001 5.000000000000e+000 0.000000000000e+000
          2.000000000000e+001 7.500000000000e+000 0.000000000000e+000
          2.000000000000e+001 1.000000000000e+001 0.000000000000e+000
          2.000000000000e+001 1.250000000000e+001 0.000000000000e+000
          2.000000000000e+001 1.500000000000e+001 0.000000000000e+000
          2.000000000000e+001 1.750000000000e+001 0.000000000000e+000
          2.000000000000e+001 2.000000000000e+001 0.000000000000e+000
          2.200000000000e+001 0.000000000000e+000 0.000000000000e+000
          2.200000000000e+001 2.500000000000e+000 0.000000000000e+000
          2.200000000000e+001 5.000000000000e+000 0.000000000000e+000
          2.200000000000e+001 7.500000000000e+000 0.000000000000e+000
          2.200000000000e+001 1.000000000000e+001 0.000000000000e+000
          2.200000000000e+001 1.250000000000e+001 0.000000000000e+000
          2.200000000000e+001 1.500000000000e+001 0.000000000000e+000
          2.200000000000e+001 1.750000000000e+001 0.000000000000e+000
          2.200000000000e+001 2.000000000000e+001 0.000000000000e+000
          2.400000000000e+001 0.000000000000e+000 0.000000000000e+000
          2.400000000000e+001 2.500000000000e+000 0.000000000000e+000
          2.400000000000e+001 5.000000000000e+000 0.000000000000e+000
          2.400000000000e+001 7.500000000000e+000 0.000000000000e+000
          2.400000000000e+001 1.000000000000e+001 0.000000000000e+000
          2.400000000000e+001 1.250000000000e+001 0.000000000000e+000
          2.400000000000e+001 1.500000000000e+001 0.000000000000e+000
          2.400000000000e+001 1.750000000000e+001 0.000000000000e+000
          2.400000000000e+001 2.000000000000e+001 0.000000000000e+000
          2.600000000000e+001 0.000000000000e+000 0.000000000000e+000
          2.600000000000e+001 2.500000000000e+000 0.000000000000e+000
          2.600000000000e+001 5.000000000000e+000 0.000000000000e+000
          2.600000000000e+001 7.500000000000e+000 0.000000000000e+000
          2.600000000000e+001 1.000000000000e+001 0.000000000000e+000
          2.600000000000e+001 1.250000000000e+001 0.000000000000e+000
          2.600000000000e+001 1.500000000000e+001 0.000000000000e+000
          2.600000000000e+001 1.750000000000e+001 0.000000000000e+000
          2.600000000000e+001 2.000000000000e+001 0.000000000000e+000
          2.800000000000e+001 0.000000000000e+000 0.000000000000e+000
          2.800000000000e+001 2.500000000000e+000 0.000000000000e+000
          2.800000000000e+001 5.000000000000e+000 0.000000000000e+000
          2.800000000000e+001 7.500000000000e+000 0.000000000000e+000
          2.800000000000e+001 1.000000000000e+001 0.000000000000e+000
          2.800000000000e+001 1.250000000000e+001 0.000000000000e+000
          2.800000000000e+001 1.500000000000e+001 0.000000000000e+000
          2.800000000000e+001 1.750000000000e+001 0.000000000000e+000
          2.800000000000e+001 2.000000000000e+001 0.000000000000e+000
          3.000000000000e+001 0.000000000000e+000 0.000000000000e+000
          3.000000000000e+001 2.500000000000e+000 0.000000000000e+000
          3.000000000000e+001 5.000000000000e+000 0.000000000000e+000
          3.000000000000e+001 7.500000000000e+000 0.000000000000e+000
[...]
      <PointData Scalars="LIQUID_PRESSURE">
        <DataArray type="Float64" Name="LIQUID_PRESSURE" format="ascii">
          1.128389388228e+006 1.128374031978e+006 1.128374031999e+006 1.128389388115e+006 1.128374032026e+006 1.128389388034e+006 1.128374031978e+006 1.128389388129e+006 1.128374031997e+006 1.128389388084e+006 1.128374032016e+006 1.128389387887e+006 1.128374031955e+006 1.128389387769e+006 1.128374031938e+006 1.128389387654e+006 1.128374031964e+006 1.128389387559e+006 1.128246847923e+006 1.128246847994e+006 1.128246848036e+006 1.128246847972e+006 1.128246847992e+006 1.128246848073e+006 1.128246848060e+006 1.128246848090e+006 1.128246848139e+006 1.128053661493e+006 1.128053661549e+006 1.128053661587e+006 1.128053661540e+006 1.128053661559e+006 1.128053661620e+006 1.128053661625e+006 1.128053661647e+006 1.128053661674e+006 1.127824997833e+006 1.127824997870e+006 1.127824997904e+006 1.127824997866e+006 1.127824997872e+006 1.127824997909e+006 1.127824997917e+006 1.127824997923e+006 1.127824997938e+006 1.127480628811e+006 1.127480628835e+006 1.127480628853e+006 1.127480628836e+006 1.127480628827e+006 1.127480628856e+006 1.127480628859e+006 1.127480628858e+006 1.127480628869e+006 1.127091010332e+006 1.127091010347e+006 1.127091010359e+006 1.127091010347e+006 1.127091010342e+006 1.127091010356e+006 1.127091010358e+006 1.127091010360e+006 1.127091010360e+006 1.126644527065e+006 1.126644527071e+006 1.126644527075e+006 1.126644527065e+006 1.126644527066e+006 1.126644527066e+006 1.126644527071e+006 1.126644527070e+006 1.126644527073e+006 1.126097634355e+006 1.126097634354e+006 1.126097634355e+006 1.126097634345e+006 1.126097634344e+006 1.126097634345e+006 1.126097634346e+006 1.126097634350e+006 1.126097634345e+006 1.125500611053e+006 1.125500611051e+006 1.125500611050e+006 1.125500611043e+006 1.125500611038e+006 1.125500611034e+006 1.125500611037e+006 1.125500611038e+006 1.125500611038e+006 1.124804227855e+006 1.124804227857e+006 1.124804227855e+006 1.124804227847e+006 1.124804227843e+006 1.124804227841e+006 1.124804227839e+006 1.124804227843e+006 1.124804227842e+006 1.124023775179e+006 1.124023775182e+006 1.124023775179e+006 1.124023775175e+006 1.124023775170e+006 1.124023775167e+006 1.124023775174e+006 1.124023775170e+006 1.124023775173e+006 1.123175746789e+006 1.123175746790e+006 1.123175746789e+006 1.123175746788e+006 1.123175746784e+006 1.123175746786e+006 1.123175746782e+006 1.123175746783e+006 1.123175746782e+006 1.122249717990e+006 1.122249717989e+006 1.122249717995e+006 1.122249717994e+006 1.122249717996e+006 1.122249717993e+006 1.122249717990e+006 1.122249717987e+006 1.122249717988e+006 1.121277020024e+006 1.121277020028e+006 1.121277020026e+006 1.121277020031e+006 1.121277020029e+006 1.121277020031e+006 1.121277020029e+006 1.121277020029e+006 1.121277020025e+006 1.120215675014e+006 1.120215675015e+006 1.120215675018e+006 1.120215675018e+006 1.120215675022e+006 1.120215675019e+006 1.120215675021e+006 1.120215675018e+006 1.120215675017e+006 1.119070392646e+006 1.119070392642e+006 1.119070392644e+006 1.119070392645e+006 1.119070392645e+006 1.119070392650e+006 1.119070392648e+006 1.119070392648e+006 1.119070392647e+006 1.117836075586e+006 1.117836075587e+006 1.117836075586e+006 1.117836075589e+006 1.117836075590e+006 1.117836075591e+006 1.117836075593e+006 1.117836075595e+006 1.117836075592e+006 1.116519729290e+006 1.116519729290e+006 1.116519729290e+006 1.116519729291e+006 1.116519729293e+006 1.116519729296e+006 1.116519729295e+006 1.116519729296e+006 1.116519729297e+006 1.115134536626e+006 1.115134536626e+006 1.115134536624e+006 1.115134536625e+006 1.115134536627e+006 1.115134536627e+006 1.115134536628e+006 1.115134536626e+006 1.115134536629e+006 1.113675616944e+006 1.113675616941e+006 1.113675616942e+006 1.113675616942e+006 1.113675616942e+006 1.113675616943e+006 1.113675616942e+006 1.113675616941e+006 1.113675616942e+006 1.112145764113e+006 1.112145764112e+006 1.112145764113e+006 1.112145764110e+006 1.112145764110e+006 1.112145764110e+006 1.112145764109e+006 1.112145764109e+006 1.112145764108e+006 1.110541904010e+006 1.110541904007e+006 1.110541904009e+006 1.110541904009e+006 1.110541904007e+006 1.110541904007e+006 1.110541904006e+006 1.110541904006e+006 1.110541904006e+006 1.108870479055e+006 1.108870479055e+006 1.108870479054e+006 1.108870479054e+006 1.108870479052e+006 1.108870479053e+006 1.108870479051e+006 1.108870479051e+006 1.108870479052e+006 1.107154927409e+006 1.107154927407e+006 1.107154927407e+006 1.107154927405e+006 1.107154927406e+006 1.107154927404e+006 1.107154927404e+006 1.107154927404e+006 1.107154927403e+006 1.105427966625e+006 1.105427966624e+006 1.105427966624e+006 1.105427966625e+006 1.105427966623e+006 1.105427966623e+006 1.105427966622e+006 1.105427966622e+006 1.105427966621e+006 1.103869496277e+006 1.103869496276e+006 1.103869496277e+006 1.103869496277e+006 1.103869496276e+006 1.103869496276e+006 1.103869496274e+006 1.103869496275e+006 1.103869496274e+006 1.102463254343e+006 1.102463254343e+006 1.102463254344e+006 1.102463254344e+006 1.102463254343e+006 1.102463254342e+006 1.102463254342e+006 1.102463254343e+006 1.102463254342e+006 1.101057120274e+006 1.101057120275e+006 1.101057120274e+006 1.101057120275e+006 1.101057120274e+006 1.101057120274e+006 1.101057120274e+006 1.101057120274e+006 1.101057120274e+006 1.099651094486e+006 1.099651094486e+006 1.099651094486e+006 1.099651094486e+006 1.099651094486e+006 1.099651094486e+006 1.099651094486e+006 1.099651094486e+006 1.099651094486e+006 1.098245176512e+006 1.098245176512e+006 1.098245176512e+006 1.098245176512e+006 1.098245176512e+006 1.098245176512e+006 1.098245176513e+006 1.098245176514e+006 1.098245176514e+006 1.096839365285e+006 1.096839365285e+006 1.096839365285e+006 1.096839365285e+006 1.096839365285e+006 1.096839365285e+006 1.096839365287e+006 1.096839365287e+006 1.096839365288e+006 1.095433659352e+006 1.095433659352e+006 1.095433659352e+006 1.095433659352e+006 1.095433659352e+006 1.095433659353e+006 1.095433659354e+006 1.095433659354e+006 1.095433659354e+006 1.094028057043e+006 1.094028057043e+006 1.094028057043e+006 1.094028057043e+006 1.094028057043e+006 1.094028057043e+006 1.094028057044e+006 1.094028057044e+006 1.094028057044e+006 1.092622556568e+006 1.092622556568e+006 1.092622556567e+006 1.092622556567e+006 1.092622556567e+006 1.092622556568e+006 1.092622556568e+006 1.092622556568e+006 1.092622556568e+006 1.091217156086e+006 1.091217156086e+006 1.091217156086e+006 1.091217156086e+006 1.091217156086e+006 1.091217156086e+006 1.091217156086e+006 1.091217156086e+006 1.091217156086e+006 1.089811853738e+006 1.089811853738e+006 1.089811853738e+006 1.089811853738e+006 1.089811853738e+006 1.089811853738e+006 1.089811853738e+006 1.089811853737e+006 1.089811853737e+006 1.088406647666e+006 1.088406647666e+006 1.088406647666e+006 1.088406647666e+006 1.088406647666e+006 1.088406647666e+006 1.088406647666e+006 1.088406647666e+006 1.088406647666e+006 1.087001536023e+006 1.087001536023e+006 1.087001536023e+006 1.087001536023e+006 1.087001536023e+006 1.087001536023e+006 1.087001536023e+006 1.087001536023e+006 1.087001536023e+006 1.085596516971e+006 1.085596516971e+006 1.085596516971e+006 1.085596516971e+006 1.085596516971e+006 1.085596516971e+006 1.085596516971e+006 1.085596516971e+006 1.085596516971e+006 1.084191588692e+006 1.084191588692e+006 1.084191588691e+006 1.084191588692e+006 1.084191588692e+006 1.084191588692e+006 1.084191588692e+006 1.084191588692e+006 1.084191588692e+006 1.082786749373e+006 1.082786749373e+006 1.082786749373e+006 1.082786749373e+006 1.082786749373e+006 1.082786749373e+006 1.082786749373e+006 1.082786749373e+006 1.082786749373e+006 1.081381997219e+006 1.081381997219e+006 1.081381997219e+006 1.081381997219e+006 1.081381997220e+006 1.081381997220e+006 1.081381997220e+006 1.081381997220e+006 1.081381997219e+006 1.079977330448e+006 1.079977330448e+006 1.079977330448e+006 1.079977330448e+006 1.079977330448e+006 1.079977330448e+006 1.079977330448e+006 1.079977330448e+006 1.079977330448e+006 1.078572747288e+006 1.078572747288e+006 1.078572747288e+006 1.078572747288e+006 1.078572747288e+006 1.078572747289e+006 1.078572747289e+006 1.078572747288e+006 1.078572747289e+006 1.077168245979e+006 1.077168245979e+006 1.077168245979e+006 1.077168245979e+006 1.077168245979e+006 1.077168245980e+006 1.077168245980e+006 1.077168245980e+006 1.077168245980e+006 1.075763824772e+006 1.075763824772e+006 1.075763824772e+006 1.075763824772e+006 1.075763824772e+006 1.075763824772e+006 1.075763824772e+006 1.075763824772e+006 1.075763824772e+006 1.074359481929e+006 1.074359481929e+006 1.074359481929e+006 1.074359481929e+006 1.074359481929e+006 1.074359481929e+006 1.074359481929e+006 1.074359481929e+006 1.074359481929e+006 1.072955215723e+006 1.072955215723e+006 1.072955215723e+006 1.072955215723e+006 1.072955215723e+006 1.072955215723e+006 1.072955215723e+006 1.072955215724e+006 1.072955215724e+006 1.071551024441e+006 1.071551024441e+006 1.071551024441e+006 1.071551024441e+006 1.071551024441e+006 1.071551024441e+006 1.071551024441e+006 1.071551024441e+006 1.071551024441e+006 1.070146906378e+006 1.070146906378e+006 1.070146906378e+006 1.070146906378e+006 1.070146906378e+006 1.070146906378e+006 1.070146906378e+006 1.070146906378e+006 1.070146906378e+006 1.068742859844e+006 1.068742859843e+006 1.068742859844e+006 1.068742859844e+006 1.068742859844e+006 1.068742859844e+006 1.068742859844e+006 1.068742859844e+006 1.068742859844e+006 1.067338883157e+006 1.067338883157e+006 1.067338883157e+006 1.067338883157e+006 1.067338883157e+006 1.067338883157e+006 1.067338883157e+006 1.067338883157e+006 1.067338883157e+006 1.065934974648e+006 1.065934974648e+006 1.065934974648e+006 1.065934974648e+006 1.065934974648e+006 1.065934974649e+006 1.065934974648e+006 1.065934974648e+006 1.065934974649e+006 1.064531132661e+006 1.064531132661e+006 1.064531132661e+006 1.064531132661e+006 1.064531132661e+006 1.064531132661e+006 1.064531132661e+006 1.064531132661e+006 1.064531132661e+006 1.063127355549e+006 1.063127355549e+006 1.063127355549e+006 1.063127355549e+006 1.063127355549e+006 1.063127355549e+006 1.063127355549e+006 1.063127355549e+006 1.063127355549e+006 1.061723641679e+006 1.061723641679e+006 1.061723641679e+006 1.061723641679e+006 1.061723641679e+006 1.061723641679e+006 1.061723641679e+006 1.061723641679e+006 1.061723641679e+006 1.060319989427e+006 1.060319989427e+006 1.060319989428e+006 1.060319989427e+006 1.060319989428e+006 1.060319989427e+006 1.060319989427e+006 1.060319989427e+006 1.060319989427e+006 1.058916397185e+006 1.058916397184e+006 1.058916397185e+006 1.058916397184e+006 1.058916397184e+006 1.058916397184e+006 1.058916397184e+006 1.058916397184e+006 1.058916397184e+006 1.057512863351e+006 1.057512863351e+006 1.057512863351e+006 1.057512863351e+006 1.057512863351e+006 1.057512863350e+006 1.057512863350e+006 1.057512863350e+006 1.057512863350e+006 1.056109386339e+006 1.056109386339e+006 1.056109386339e+006 1.056109386339e+006 1.056109386339e+006 1.056109386339e+006 1.056109386339e+006 1.056109386338e+006 1.056109386338e+006 1.054705964573e+006 1.054705964573e+006 1.054705964573e+006 1.054705964573e+006 1.054705964573e+006 1.054705964572e+006 1.054705964572e+006 1.054705964572e+006 1.054705964572e+006 1.053302596489e+006 1.053302596489e+006 1.053302596489e+006 1.053302596489e+006 1.053302596488e+006 1.053302596488e+006 1.053302596488e+006 1.053302596488e+006 1.053302596488e+006 1.051899280534e+006 1.051899280534e+006 1.051899280534e+006 1.051899280534e+006 1.051899280534e+006 1.051899280533e+006 1.051899280533e+006 1.051899280533e+006 1.051899280533e+006 1.050496015167e+006 1.050496015167e+006 1.050496015167e+006 1.050496015167e+006 1.050496015167e+006 1.050496015167e+006 1.050496015167e+006 1.050496015166e+006 1.050496015166e+006 1.049092798859e+006 1.049092798858e+006 1.049092798858e+006 1.049092798858e+006 1.049092798858e+006 1.049092798858e+006 1.049092798858e+006 1.049092798858e+006 1.049092798858e+006 1.047689630090e+006 1.047689630090e+006 1.047689630090e+006 1.047689630090e+006 1.047689630090e+006 1.047689630090e+006 1.047689630090e+006 1.047689630090e+006 1.047689630090e+006 1.046286507354e+006 1.046286507354e+006 1.046286507354e+006 1.046286507354e+006 1.046286507354e+006 1.046286507354e+006 1.046286507354e+006 1.046286507354e+006 1.046286507354e+006 1.044883429155e+006 1.044883429156e+006 1.044883429156e+006 1.044883429155e+006 1.044883429155e+006 1.044883429155e+006 1.044883429155e+006 1.044883429155e+006 1.044883429155e+006 1.043480394009e+006 1.043480394009e+006 1.043480394009e+006 1.043480394009e+006 1.043480394009e+006 1.043480394009e+006 1.043480394008e+006 1.043480394008e+006 1.043480394008e+006 1.042077400440e+006 1.042077400440e+006 1.042077400440e+006 1.042077400439e+006 1.042077400439e+006 1.042077400439e+006 1.042077400439e+006 1.042077400439e+006 1.042077400439e+006 1.040674446985e+006 1.040674446985e+006 1.040674446985e+006 1.040674446985e+006 1.040674446985e+006 1.040674446985e+006 1.040674446985e+006 1.040674446984e+006 1.040674446984e+006 1.039271532192e+006 1.039271532192e+006 1.039271532192e+006 1.039271532192e+006 1.039271532192e+006 1.039271532192e+006 1.039271532192e+006 1.039271532192e+006 1.039271532192e+006 1.037868654618e+006 1.037868654618e+006 1.037868654618e+006 1.037868654618e+006 1.037868654618e+006 1.037868654618e+006 1.037868654618e+006 1.037868654618e+006 1.037868654618e+006 1.036465812831e+006 1.036465812831e+006 1.036465812831e+006 1.036465812831e+006 1.036465812831e+006 1.036465812831e+006 1.036465812831e+006 1.036465812831e+006 1.036465812831e+006 1.035063005409e+006 1.035063005409e+006 1.035063005409e+006 1.035063005409e+006 1.035063005409e+006 1.035063005409e+006 1.035063005409e+006 1.035063005409e+006 1.035063005409e+006 1.033660230940e+006 1.033660230940e+006 1.033660230940e+006 1.033660230940e+006 1.033660230940e+006 1.033660230940e+006 1.033660230940e+006 1.033660230940e+006 1.033660230940e+006 1.032257488021e+006 1.032257488021e+006 1.032257488021e+006 1.032257488021e+006 1.032257488021e+006 1.032257488021e+006 1.032257488021e+006 1.032257488021e+006 1.032257488021e+006 1.030854775258e+006 1.030854775258e+006 1.030854775258e+006 1.030854775258e+006 1.030854775258e+006 1.030854775258e+006 1.030854775258e+006 1.030854775258e+006 1.030854775258e+006 1.029452091266e+006 1.029452091266e+006 1.029452091266e+006 1.029452091266e+006 1.029452091266e+006 1.029452091266e+006 1.029452091266e+006 1.029452091266e+006 1.029452091266e+006 1.028049434670e+006 1.028049434670e+006 1.028049434670e+006 1.028049434670e+006 1.028049434670e+006 1.028049434670e+006 1.028049434670e+006 1.028049434670e+006 1.028049434670e+006 1.026646804102e+006 1.026646804102e+006 1.026646804102e+006 1.026646804102e+006 1.026646804102e+006 1.026646804102e+006 1.026646804103e+006 1.026646804102e+006 1.026646804102e+006 1.025244198204e+006 1.025244198204e+006 1.025244198204e+006 1.025244198204e+006 1.025244198204e+006 1.025244198204e+006 1.025244198204e+006 1.025244198204e+006 1.025244198204e+006 1.023841615623e+006 1.023841615624e+006 1.023841615624e+006 1.023841615624e+006 1.023841615624e+006 1.023841615624e+006 1.023841615624e+006 1.023841615624e+006 1.023841615624e+006 1.022439055017e+006 1.022439055017e+006 1.022439055017e+006 1.022439055017e+006 1.022439055017e+006 1.022439055017e+006 1.022439055017e+006 1.022439055017e+006 1.022439055017e+006 1.021036515047e+006 1.021036515047e+006 1.021036515047e+006 1.021036515047e+006 1.021036515047e+006 1.021036515047e+006 1.021036515047e+006 1.021036515047e+006 1.021036515047e+006 1.019633994384e+006 1.019633994384e+006 1.019633994384e+006 1.019633994384e+006 1.019633994384e+006 1.019633994384e+006 1.019633994384e+006 1.019633994384e+006 1.019633994384e+006 1.018231491704e+006 1.018231491704e+006 1.018231491704e+006 1.018231491704e+006 1.018231491704e+006 1.018231491704e+006 1.018231491704e+006 1.018231491704e+006 1.018231491704e+006 1.016829005689e+006 1.016829005689e+006 1.016829005689e+006 1.016829005689e+006 1.016829005689e+006 1.016829005689e+006 1.016829005689e+006 1.016829005689e+006 1.016829005689e+006 1.015426535027e+006 1.015426535028e+006 1.015426535028e+006 1.015426535028e+006 1.015426535028e+006 1.015426535028e+006 1.015426535028e+006 1.015426535028e+006 1.015426535028e+006 1.014024078412e+006 1.014024078412e+006 1.014024078412e+006 1.014024078412e+006 1.014024078412e+006 1.014024078412e+006 1.014024078412e+006 1.014024078412e+006 1.014024078412e+006 1.012621634539e+006 1.012621634539e+006 1.012621634539e+006 1.012621634539e+006 1.012621634539e+006 1.012621634539e+006 1.012621634539e+006 1.012621634539e+006 1.012621634539e+006 1.011219202112e+006 1.011219202112e+006 1.011219202112e+006 1.011219202112e+006 1.011219202112e+006 1.011219202112e+006 1.011219202112e+006 1.011219202112e+006 1.011219202112e+006 1.009816779836e+006 1.009816779836e+006 1.009816779836e+006 1.009816779836e+006 1.009816779836e+006 1.009816779836e+006 1.009816779836e+006 1.009816779836e+006 1.009816779836e+006 1.008414366419e+006 1.008414366419e+006 1.008414366419e+006 1.008414366419e+006 1.008414366419e+006 1.008414366419e+006 1.008414366419e+006 1.008414366419e+006 1.008414366419e+006 1.007011960575e+006 1.007011960575e+006 1.007011960575e+006 1.007011960575e+006 1.007011960575e+006 1.007011960575e+006 1.007011960575e+006 1.007011960575e+006 1.007011960575e+006 1.005609561018e+006 1.005609561018e+006 1.005609561018e+006 1.005609561018e+006 1.005609561018e+006 1.005609561018e+006 1.005609561018e+006 1.005609561018e+006 1.005609561018e+006 1.004207166463e+006 1.004207166463e+006 1.004207166463e+006 1.004207166463e+006 1.004207166463e+006 1.004207166463e+006 1.004207166463e+006 1.004207166463e+006 1.004207166463e+006 1.002804775629e+006 1.002804775629e+006 1.002804775629e+006 1.002804775629e+006 1.002804775629e+006 1.002804775629e+006 1.002804775629e+006 1.002804775629e+006 1.002804775629e+006 1.001402387235e+006 1.001402387235e+006 1.001402387235e+006 1.001402387235e+006 1.001402387235e+006 1.001402387235e+006 1.001402387235e+006 1.001402387235e+006 1.001402387235e+006 1.000000000000e+006 1.000000000000e+006 1.000000000000e+006 1.000000000000e+006 1.000000000000e+006 1.000000000000e+006 1.000000000000e+006 1.000000000000e+006 1.000000000000e+006 
        </DataArray>
        <DataArray type="Float64" Name="MOLAR_FRACTION" format="ascii">