<?xml version="1.0"?>
<VTKFile type="UnstructuredGrid" version="0.1" byte_order="LittleEndian">
  <UnstructuredGrid>
    <Piece NumberOfPoints="909" NumberOfCells="800">
      <Points>
        <DataArray type="Float64" NumberOfComponents="3" format="ascii">
          0.000000000000e+000 0.000000000000e+000 0.000000000000e+000
          2.000000000000e+000 0.000000000000e+000 0.000000000000e+000
          2.000000000000e+000 2.500000000000e+000 0.000000000000e+000
          0.000000000000e+000 2.500000000000e+000 0.000000000000e+000
          2.000000000000e+000 5.000000000000e+000 0.000000000000e+000
          0.000000000000e+000 5.000000000000e+000 0.000000000000e+000
          2.000000000000e+000 7.500000000000e+000 0.000000000000e+000
          0.000000000000e+000 7.500000000000e+000 0.000000000000e+000
          2.000000000000e+000 1.000000000000e+001 0.000000000000e+000
          0.000000000000e+000 1.000000000000e+001 0.000000000000e+000
          2.000000000000e+000 1.250000000000e+001 0.000000000000e+000
          0.000000000000e+000 1.250000000000e+001 0.000000000000e+000
          2.000000000000e+000 1.500000000000e+001 0.000000000000e+000
          0.000000000000e+000 1.500000000000e+001 0.000000000000e+000
          2.000000000000e+000 1.750000000000e+001 0.000000000000e+000
          0.000000000000e+000 1.750000000000e+001 0.000000000000e+000
          2.000000000000e+000 2.000000000000e+001 0.000000000000e+000
          0.000000000000e+000 2.000000000000e+001 0.000000000000e+000
          4.000000000000e+000 0.000000000000e+000 0.000000000000e+000
          4.000000000000e+000 2.500000000000e+000 0.000000000000e+000
          4.000000000000e+000 5.000000000000e+000 0.000000000000e+000
          4.000000000000e+000 7.500000000000e+000 0.000000000000e+000
          4.000000000000e+000 1.000000000000e+001 0.000000000000e+000
          4.000000000000e+000 1.250000000000e+001 0.000000000000e+000
          4.000000000000e+000 1.500000000000e+001 0.000000000000e+000
          4.000000000000e+000 1.750000000000e+001 0.000000000000e+000
          4.000000000000e+000 2.000000000000e+001 0.000000000000e+000
          6.000000000000e+000 0.000000000000e+000 0.000000000000e+000
          6.000000000000e+000 2.500000000000e+000 0.000000000000e+000
          6.000000000000e+000 5.000000000000e+000 0.000000000000e+000
          6.000000000000e+000 7.500000000000e+000 0.000000000000e+000
          6.000000000000e+000 1.000000000000e+001 0.000000000000e+000
          6.000000000000e+000 1.250000000000e+001 0.000000000000e+000
          6.000000000000e+000 1.500000000000e+001 0.000000000000e+000
          6.000000000000e+000 1.750000000000e+001 0.000000000000e+000
          6.000000000000e+000 2.000000000000e+001 0.000000000000e+000
          8.000000000000e+000 0.000000000000e+000 0.000000000000e+000
          8.000000000000e+000 2.500000000000e+000 0.000000000000e+000
          8.000000000000e+000 5.000000000000e+000 0.000000000000e+000
          8.000000000000e+000 7.500000000000e+000 0.000000000000e+000
          8.000000000000e+000 1.000000000000e+001 0.000000000000e+000
          8.000000000000e+000 1.250000000000e+001 0.000000000000e+000
          8.000000000000e+000 1.500000000000e+001 0.000000000000e+000
          8.000000000000e+000 1.750000000000e+001 0.000000000000e+000
          8.000000000000e+000 2.000000000000e+001 0.000000000000e+000
          1.000000000000e+001 0.000000000000e+000 0.000000000000e+000
          1.000000000000e+001 2.500000000000e+000 0.000000000000e+000
          1.000000000000e+001 5.000000000000e+000 0.000000000000e+000
          1.000000000000e+001 7.500000000000e+000 0.000000000000e+000
          1.000000000000e+001 1.000000000000e+001 0.000000000000e+000
          1.000000000000e+001 1.250000000000e+001 0.000000000000e+000
          1.000000000000e+001 1.500000000000e+001 0.000000000000e+000
          1.000000000000e+001 1.750000000000e+001 0.000000000000e+000
          1.000000000000e+001 2.000000000000e+001 0.000000000000e+000
          1.200000000000e+001 0.000000000000e+000 0.000000000000e+000
          1.200000000000e+001 2.500000000000e+000 0.000000000000e+000
          1.200000000000e+001 5.000000000000e+000 0.000000000000e+000
          1.200000000000e+001 7.500000000000e+000 0.000000000000e+000
          1.200000000000e+001 1.000000000000e+001 0.000000000000e+000
          1.200000000000e+001 1.250000000000e+001 0.000000000000e+000
          1.200000000000e+001 1.500000000000e+001 0.000000000000e+000
          1.200000000000e+001 1.750000000000e+001 0.000000000000e+000
          1.200000000000e+001 2.000000000000e+001 0.000000000000e+000
          1.400000000000e+001 0.000000000000e+000 0.000000000000e+000
          1.400000000000e+001 2.500000000000e+000 0.000000000000e+000
          1.400000000000e+001 5.000000000000e+000 0.000000000000e+000
          1.400000000000e+001 7.500000000000e+000 0.000000000000e+000
          1.400000000000e+001 1.000000000000e+001 0.000000000000e+000
          1.400000000000e+001 1.250000000000e+001 0.000000000000e+000
          1.400000000000e+001 1.500000000000e+001 0.000000000000e+000
          1.400000000000e+001 1.750000000000e+001 0.000000000000e+000
          1.400000000000e+001 2.000000000000e+001 0.000000000000e+000
          1.600000000000e+001 0.000000000000e+000 0.000000000000e+000
          1.600000000000e+001 2.500000000000e+000 0.000000000000e+000
          1.600000000000e+001 5.000000000000e+000 0.000000000000e+000
          1.600000000000e+001 7.500000000000e+000 0.000000000000e+000
          1.600000000000e+001 1.000000000000e+001 0.000000000000e+000
          1.600000000000e+001 1.250000000000e+001 0.000000000000e+000
          1.600000000000e+001 1.500000000000e+001 0.000000000000e+000
          1.600000000000e+001 1.750000000000e+001 0.000000000000e+000
          1.600000000000e+001 2.000000000000e+001 0.000000000000e+000
          1.800000000000e+001 0.000000000000e+000 0.000000000000e+000
          1.800000000000e+001 2.500000000000e+000 0.000000000000e+000
          1.800000000000e+001 5.000000000000e+000 0.000000000000e+000
          1.800000000000e+001 7.500000000000e+000 0.000000000000e+000
          1.800000000000e+001 1.000000000000e+001 0.000000000000e+000
          1.800000000000e+001 1.250000000000e+001 0.000000000000e+000
          1.800000000000e+001 1.500000000000e+001 0.000000000000e+000
          1.800000000000e+001 1.750000000000e+001 0.000000000000e+000
          1.800000000000e+001 2.000000000000e+001 0.000000000000e+000
          2.000000000000e+001 0.000000000000e+000 0.000000000000e+000
          2.000000000000e+001 2.500000000000e+000 0.000000000000e+000
          2.000000000000e+001 5.000000000000e+000 0.000000000000e+000
          2.000000000000e+001 7.500000000000e+000 0.000000000000e+000
          2.000000000000e+001 1.000000000000e+001 0.000000000000e+000
          2.000000000000e+001 1.250000000000e+001 0.000000000000e+000
          2.000000000000e+001 1.500000000000e+001 0.000000000000e+000
          2.000000000000e+001 1.750000000000e+001 0.000000000000e+000
          2.000000000000e+001 2.000000000000e+001 0.000000000000e+000
          2.200000000000e+001 0.000000000000e+000 0.000000000000e+000
          2.200000000000e+001 2.500000000000e+000 0.000000000000e+000
          2.200000000000e+001 5.000000000000e+000 0.000000000000e+000
          2.200000000000e+001 7.500000000000e+000 0.000000000000e+000
          2.200000000000e+001 1.000000000000e+001 0.000000000000e+000
          2.200000000000e+001 1.250000000000e+001 0.000000000000e+000
          2.200000000000e+001 1.500000000000e+001 0.000000000000e+000
          2.200000000000e+001 1.750000000000e+001 0.000000000000e+000
          2.200000000000e+001 2.000000000000e+001 0.000000000000e+000
          2.400000000000e+001 0.000000000000e+000 0.000000000000e+000
          2.400000000000e+001 2.500000000000e+000 0.000000000000e+000
          2.400000000000e+001 5.000000000000e+000 0.000000000000e+000
          2.400000000000e+001 7.500000000000e+000 0.000000000000e+000
          2.400000000000e+001 1.000000000000e+001 0.000000000000e+000
          2.400000000000e+001 1.250000000000e+001 0.000000000000e+000
          2.400000000000e+001 1.500000000000e+001 0.000000000000e+000
          2.400000000000e+001 1.750000000000e+001 0.000000000000e+000
          2.400000000000e+001 2.000000000000e+001 0.000000000000e+000
          2.600000000000e+001 0.000000000000e+000 0.000000000000e+000
          2.600000000000e+001 2.500000000000e+000 0.000000000000e+000
          2.600000000000e+001 5.000000000000e+000 0.000000000000e+000
          2.600000000000e+001 7.500000000000e+000 0.000000000000e+000
          2.600000000000e+001 1.000000000000e+001 0.000000000000e+000
          2.600000000000e+001 1.250000000000e+001 0.000000000000e+000
          2.600000000000e+001 1.500000000000e+001 0.000000000000e+000
          2.600000000000e+001 1.750000000000e+001 0.000000000000e+000
          2.600000000000e+001 2.000000000000e+001 0.000000000000e+000
          2.800000000000e+001 0.000000000000e+000 0.000000000000e+000
          2.800000000000e+001 2.500000000000e+000 0.000000000000e+000
          2.800000000000e+001 5.000000000000e+000 0.000000000000e+000
          2.800000000000e+001 7.500000000000e+000 0.000000000000e+000
          2.800000000000e+001 1.000000000000e+001 0.000000000000e+000
          2.800000000000e+001 1.250000000000e+001 0.000000000000e+000
          2.800000000000e+001 1.500000000000e+001 0.000000000000e+000
          2.800000000000e+001 1.750000000000e+001 0.000000000000e+000
          2.800000000000e+001 2.000000000000e+001 0.000000000000e+000
          3.000000000000e+001 0.000000000000e+000 0.000000000000e+000
          3.000000000000e+001 2.500000000000e+000 0.000000000000e+000
          3.000000000000e+001 5.000000000000e+000 0.000000000000e+000
          3.000000000000e+001 7.500000000000e+000 0.000000000000e+000
[...]
      <PointData Scalars="LIQUID_PRESSURE">
        <DataArray type="Float64" Name="LIQUID_PRESSURE" format="ascii">
          1.146752857564e+006 1.146755591674e+006 1.146755591693e+006 1.146752857449e+006 1.146755591722e+006 1.146752857370e+006 1.146755591678e+006 1.146752857479e+006 1.146755591704e+006 1.146752857445e+006 1.146755591746e+006 1.146752857273e+006 1.146755591710e+006 1.146752857211e+006 1.146755591716e+006 1.146752857128e+006 1.146755591751e+006 1.146752857036e+006 1.146671098393e+006 1.146671098457e+006 1.146671098494e+006 1.146671098429e+006 1.146671098448e+006 1.146671098530e+006 1.146671098509e+006 1.146671098541e+006 1.146671098594e+006 1.146523228051e+006 1.146523228099e+006 1.146523228128e+006 1.146523228078e+006 1.146523228092e+006 1.146523228142e+006 1.146523228128e+006 1.146523228143e+006 1.146523228170e+006 1.146388497936e+006 1.146388497965e+006 1.146388497990e+006 1.146388497950e+006 1.146388497949e+006 1.146388497976e+006 1.146388497965e+006 1.146388497963e+006 1.146388497979e+006 1.146139917566e+006 1.146139917586e+006 1.146139917597e+006 1.146139917578e+006 1.146139917567e+006 1.146139917588e+006 1.146139917578e+006 1.146139917571e+006 1.146139917581e+006 1.145865253274e+006 1.145865253286e+006 1.145865253294e+006 1.145865253281e+006 1.145865253277e+006 1.145865253284e+006 1.145865253279e+006 1.145865253277e+006 1.145865253278e+006 1.145573466597e+006 1.145573466602e+006 1.145573466606e+006 1.145573466596e+006 1.145573466598e+006 1.145573466596e+006 1.145573466597e+006 1.145573466594e+006 1.145573466595e+006 1.145175644081e+006 1.145175644079e+006 1.145175644081e+006 1.145175644075e+006 1.145175644076e+006 1.145175644077e+006 1.145175644076e+006 1.145175644079e+006 1.145175644073e+006 1.144778344410e+006 1.144778344409e+006 1.144778344410e+006 1.144778344407e+006 1.144778344405e+006 1.144778344404e+006 1.144778344405e+006 1.144778344404e+006 1.144778344406e+006 1.144302731921e+006 1.144302731925e+006 1.144302731924e+006 1.144302731921e+006 1.144302731920e+006 1.144302731920e+006 1.144302731920e+006 1.144302731921e+006 1.144302731921e+006 1.143770003514e+006 1.143770003517e+006 1.143770003515e+006 1.143770003515e+006 1.143770003512e+006 1.143770003512e+006 1.143770003519e+006 1.143770003515e+006 1.143770003518e+006 1.143208296415e+006 1.143208296415e+006 1.143208296416e+006 1.143208296416e+006 1.143208296414e+006 1.143208296418e+006 1.143208296414e+006 1.143208296415e+006 1.143208296415e+006 1.142571945003e+006 1.142571945002e+006 1.142571945006e+006 1.142571945006e+006 1.142571945008e+006 1.142571945006e+006 1.142571945005e+006 1.142571945004e+006 1.142571945004e+006 1.141921535519e+006 1.141921535523e+006 1.141921535520e+006 1.141921535524e+006 1.141921535523e+006 1.141921535524e+006 1.141921535524e+006 1.141921535524e+006 1.141921535521e+006 1.141195045728e+006 1.141195045728e+006 1.141195045730e+006 1.141195045728e+006 1.141195045731e+006 1.141195045728e+006 1.141195045730e+006 1.141195045728e+006 1.141195045728e+006 1.140431950815e+006 1.140431950811e+006 1.140431950812e+006 1.140431950812e+006 1.140431950810e+006 1.140431950814e+006 1.140431950812e+006 1.140431950813e+006 1.140431950811e+006 1.139607077779e+006 1.139607077780e+006 1.139607077779e+006 1.139607077780e+006 1.139607077779e+006 1.139607077779e+006 1.139607077781e+006 1.139607077782e+006 1.139607077780e+006 1.138717833576e+006 1.138717833576e+006 1.138717833575e+006 1.138717833575e+006 1.138717833576e+006 1.138717833578e+006 1.138717833576e+006 1.138717833576e+006 1.138717833578e+006 1.137809748673e+006 1.137809748673e+006 1.137809748671e+006 1.137809748672e+006 1.137809748672e+006 1.137809748672e+006 1.137809748672e+006 1.137809748671e+006 1.137809748673e+006 1.136821196895e+006 1.136821196893e+006 1.136821196894e+006 1.136821196893e+006 1.136821196893e+006 1.136821196894e+006 1.136821196893e+006 1.136821196893e+006 1.136821196892e+006 1.135802879929e+006 1.135802879928e+006 1.135802879930e+006 1.135802879927e+006 1.135802879928e+006 1.135802879927e+006 1.135802879927e+006 1.135802879928e+006 1.135802879926e+006 1.134728789021e+006 1.134728789019e+006 1.134728789020e+006 1.134728789021e+006 1.134728789020e+006 1.134728789021e+006 1.134728789020e+006 1.134728789020e+006 1.134728789021e+006 1.133602976865e+006 1.133602976865e+006 1.133602976865e+006 1.133602976865e+006 1.133602976864e+006 1.133602976865e+006 1.133602976864e+006 1.133602976865e+006 1.133602976865e+006 1.132422282974e+006 1.132422282973e+006 1.132422282974e+006 1.132422282972e+006 1.132422282974e+006 1.132422282972e+006 1.132422282973e+006 1.132422282973e+006 1.132422282973e+006 1.131177340197e+006 1.131177340197e+006 1.131177340198e+006 1.131177340199e+006 1.131177340198e+006 1.131177340198e+006 1.131177340197e+006 1.131177340198e+006 1.131177340197e+006 1.129897871317e+006 1.129897871317e+006 1.129897871318e+006 1.129897871318e+006 1.129897871318e+006 1.129897871318e+006 1.129897871317e+006 1.129897871318e+006 1.129897871317e+006 1.128554066373e+006 1.128554066373e+006 1.128554066374e+006 1.128554066374e+006 1.128554066374e+006 1.128554066373e+006 1.128554066374e+006 1.128554066374e+006 1.128554066374e+006 1.127171995421e+006 1.127171995422e+006 1.127171995421e+006 1.127171995421e+006 1.127171995421e+006 1.127171995421e+006 1.127171995421e+006 1.127171995421e+006 1.127171995421e+006 1.125738332848e+006 1.125738332848e+006 1.125738332848e+006 1.125738332848e+006 1.125738332848e+006 1.125738332848e+006 1.125738332848e+006 1.125738332848e+006 1.125738332848e+006 1.124236858171e+006 1.124236858172e+006 1.124236858171e+006 1.124236858171e+006 1.124236858171e+006 1.124236858171e+006 1.124236858172e+006 1.124236858172e+006 1.124236858172e+006 1.122697115577e+006 1.122697115577e+006 1.122697115576e+006 1.122697115576e+006 1.122697115576e+006 1.122697115576e+006 1.122697115577e+006 1.122697115577e+006 1.122697115577e+006 1.121087919709e+006 1.121087919709e+006 1.121087919709e+006 1.121087919709e+006 1.121087919709e+006 1.121087919709e+006 1.121087919709e+006 1.121087919709e+006 1.121087919709e+006 1.119427737302e+006 1.119427737302e+006 1.119427737301e+006 1.119427737301e+006 1.119427737301e+006 1.119427737302e+006 1.119427737302e+006 1.119427737302e+006 1.119427737301e+006 1.117723230853e+006 1.117723230853e+006 1.117723230853e+006 1.117723230853e+006 1.117723230853e+006 1.117723230853e+006 1.117723230853e+006 1.117723230852e+006 1.117723230852e+006 1.115954654160e+006 1.115954654160e+006 1.115954654160e+006 1.115954654160e+006 1.115954654159e+006 1.115954654160e+006 1.115954654159e+006 1.115954654159e+006 1.115954654159e+006 1.114146125944e+006 1.114146125944e+006 1.114146125944e+006 1.114146125944e+006 1.114146125944e+006 1.114146125944e+006 1.114146125944e+006 1.114146125944e+006 1.114146125944e+006 1.112291317752e+006 1.112291317752e+006 1.112291317752e+006 1.112291317752e+006 1.112291317752e+006 1.112291317752e+006 1.112291317752e+006 1.112291317752e+006 1.112291317752e+006 1.110379931334e+006 1.110379931334e+006 1.110379931333e+006 1.110379931333e+006 1.110379931333e+006 1.110379931333e+006 1.110379931333e+006 1.110379931333e+006 1.110379931333e+006 1.108420710583e+006 1.108420710583e+006 1.108420710582e+006 1.108420710582e+006 1.108420710582e+006 1.108420710582e+006 1.108420710582e+006 1.108420710582e+006 1.108420710582e+006 1.106404190045e+006 1.106404190045e+006 1.106404190045e+006 1.106404190045e+006 1.106404190045e+006 1.106404190045e+006 1.106404190045e+006 1.106404190045e+006 1.106404190045e+006 1.104292556867e+006 1.104292556867e+006 1.104292556867e+006 1.104292556867e+006 1.104292556866e+006 1.104292556866e+006 1.104292556866e+006 1.104292556866e+006 1.104292556866e+006 1.102160172405e+006 1.102160172405e+006 1.102160172405e+006 1.102160172405e+006 1.102160172405e+006 1.102160172405e+006 1.102160172404e+006 1.102160172404e+006 1.102160172404e+006 1.099992850126e+006 1.099992850126e+006 1.099992850126e+006 1.099992850126e+006 1.099992850126e+006 1.099992850125e+006 1.099992850126e+006 1.099992850125e+006 1.099992850125e+006 1.097791800842e+006 1.097791800842e+006 1.097791800842e+006 1.097791800842e+006 1.097791800842e+006 1.097791800842e+006 1.097791800842e+006 1.097791800842e+006 1.097791800842e+006 1.095565749644e+006 1.095565749644e+006 1.095565749644e+006 1.095565749644e+006 1.095565749644e+006 1.095565749644e+006 1.095565749644e+006 1.095565749644e+006 1.095565749644e+006 1.093328057338e+006 1.093328057338e+006 1.093328057338e+006 1.093328057337e+006 1.093328057337e+006 1.093328057338e+006 1.093328057338e+006 1.093328057338e+006 1.093328057337e+006 1.091148879741e+006 1.091148879741e+006 1.091148879741e+006 1.091148879741e+006 1.091148879741e+006 1.091148879742e+006 1.091148879742e+006 1.091148879742e+006 1.091148879742e+006 1.089207381735e+006 1.089207381735e+006 1.089207381735e+006 1.089207381735e+006 1.089207381735e+006 1.089207381735e+006 1.089207381735e+006 1.089207381735e+006 1.089207381735e+006 1.087490365335e+006 1.087490365335e+006 1.087490365336e+006 1.087490365335e+006 1.087490365336e+006 1.087490365336e+006 1.087490365336e+006 1.087490365336e+006 1.087490365336e+006 1.085773446396e+006 1.085773446396e+006 1.085773446396e+006 1.085773446396e+006 1.085773446396e+006 1.085773446396e+006 1.085773446396e+006 1.085773446396e+006 1.085773446396e+006 1.084056619204e+006 1.084056619203e+006 1.084056619203e+006 1.084056619204e+006 1.084056619204e+006 1.084056619204e+006 1.084056619204e+006 1.084056619204e+006 1.084056619204e+006 1.082339879595e+006 1.082339879595e+006 1.082339879595e+006 1.082339879596e+006 1.082339879596e+006 1.082339879596e+006 1.082339879596e+006 1.082339879596e+006 1.082339879596e+006 1.080623224330e+006 1.080623224330e+006 1.080623224330e+006 1.080623224330e+006 1.080623224331e+006 1.080623224331e+006 1.080623224331e+006 1.080623224331e+006 1.080623224331e+006 1.078906650713e+006 1.078906650712e+006 1.078906650712e+006 1.078906650712e+006 1.078906650713e+006 1.078906650713e+006 1.078906650713e+006 1.078906650713e+006 1.078906650713e+006 1.077190156369e+006 1.077190156369e+006 1.077190156369e+006 1.077190156369e+006 1.077190156369e+006 1.077190156369e+006 1.077190156369e+006 1.077190156369e+006 1.077190156369e+006 1.075473739118e+006 1.075473739118e+006 1.075473739118e+006 1.075473739118e+006 1.075473739118e+006 1.075473739118e+006 1.075473739118e+006 1.075473739118e+006 1.075473739118e+006 1.073757396894e+006 1.073757396895e+006 1.073757396895e+006 1.073757396895e+006 1.073757396895e+006 1.073757396895e+006 1.073757396895e+006 1.073757396894e+006 1.073757396895e+006 1.072041127706e+006 1.072041127706e+006 1.072041127706e+006 1.072041127706e+006 1.072041127706e+006 1.072041127706e+006 1.072041127706e+006 1.072041127706e+006 1.072041127706e+006 1.070324929605e+006 1.070324929605e+006 1.070324929605e+006 1.070324929605e+006 1.070324929605e+006 1.070324929605e+006 1.070324929605e+006 1.070324929605e+006 1.070324929605e+006 1.068608800677e+006 1.068608800677e+006 1.068608800677e+006 1.068608800677e+006 1.068608800677e+006 1.068608800677e+006 1.068608800677e+006 1.068608800676e+006 1.068608800677e+006 1.066892739031e+006 1.066892739031e+006 1.066892739031e+006 1.066892739030e+006 1.066892739030e+006 1.066892739030e+006 1.066892739030e+006 1.066892739030e+006 1.066892739030e+006 1.065176742793e+006 1.065176742793e+006 1.065176742793e+006 1.065176742793e+006 1.065176742793e+006 1.065176742792e+006 1.065176742792e+006 1.065176742792e+006 1.065176742792e+006 1.063460810107e+006 1.063460810107e+006 1.063460810107e+006 1.063460810107e+006 1.063460810107e+006 1.063460810107e+006 1.063460810107e+006 1.063460810107e+006 1.063460810106e+006 1.061744939131e+006 1.061744939131e+006 1.061744939131e+006 1.061744939130e+006 1.061744939130e+006 1.061744939130e+006 1.061744939130e+006 1.061744939130e+006 1.061744939130e+006 1.060029128034e+006 1.060029128034e+006 1.060029128034e+006 1.060029128034e+006 1.060029128034e+006 1.060029128034e+006 1.060029128034e+006 1.060029128034e+006 1.060029128034e+006 1.058313375001e+006 1.058313375001e+006 1.058313375001e+006 1.058313375001e+006 1.058313375001e+006 1.058313375001e+006 1.058313375000e+006 1.058313375000e+006 1.058313375001e+006 1.056597678227e+006 1.056597678227e+006 1.056597678227e+006 1.056597678226e+006 1.056597678226e+006 1.056597678226e+006 1.056597678226e+006 1.056597678226e+006 1.056597678227e+006 1.054882035919e+006 1.054882035919e+006 1.054882035919e+006 1.054882035919e+006 1.054882035919e+006 1.054882035919e+006 1.054882035919e+006 1.054882035919e+006 1.054882035918e+006 1.053166446296e+006 1.053166446296e+006 1.053166446296e+006 1.053166446296e+006 1.053166446296e+006 1.053166446296e+006 1.053166446296e+006 1.053166446296e+006 1.053166446296e+006 1.051450907589e+006 1.051450907589e+006 1.051450907589e+006 1.051450907589e+006 1.051450907589e+006 1.051450907589e+006 1.051450907589e+006 1.051450907589e+006 1.051450907589e+006 1.049735418038e+006 1.049735418038e+006 1.049735418038e+006 1.049735418038e+006 1.049735418038e+006 1.049735418038e+006 1.049735418038e+006 1.049735418038e+006 1.049735418038e+006 1.048019975895e+006 1.048019975895e+006 1.048019975895e+006 1.048019975895e+006 1.048019975895e+006 1.048019975895e+006 1.048019975895e+006 1.048019975895e+006 1.048019975895e+006 1.046304579422e+006 1.046304579422e+006 1.046304579422e+006 1.046304579422e+006 1.046304579421e+006 1.046304579421e+006 1.046304579421e+006 1.046304579421e+006 1.046304579421e+006 1.044589226889e+006 1.044589226889e+006 1.044589226889e+006 1.044589226889e+006 1.044589226889e+006 1.044589226889e+006 1.044589226889e+006 1.044589226889e+006 1.044589226889e+006 1.042873916578e+006 1.042873916578e+006 1.042873916578e+006 1.042873916578e+006 1.042873916578e+006 1.042873916577e+006 1.042873916577e+006 1.042873916577e+006 1.042873916577e+006 1.041158646778e+006 1.041158646778e+006 1.041158646778e+006 1.041158646778e+006 1.041158646778e+006 1.041158646778e+006 1.041158646778e+006 1.041158646778e+006 1.041158646778e+006 1.039443415789e+006 1.039443415789e+006 1.039443415789e+006 1.039443415788e+006 1.039443415788e+006 1.039443415788e+006 1.039443415788e+006 1.039443415788e+006 1.039443415788e+006 1.037728221916e+006 1.037728221916e+006 1.037728221916e+006 1.037728221916e+006 1.037728221916e+006 1.037728221916e+006 1.037728221916e+006 1.037728221915e+006 1.037728221915e+006 1.036013063474e+006 1.036013063474e+006 1.036013063474e+006 1.036013063474e+006 1.036013063474e+006 1.036013063474e+006 1.036013063474e+006 1.036013063474e+006 1.036013063474e+006 1.034297938787e+006 1.034297938787e+006 1.034297938787e+006 1.034297938787e+006 1.034297938787e+006 1.034297938787e+006 1.034297938787e+006 1.034297938787e+006 1.034297938787e+006 1.032582846182e+006 1.032582846182e+006 1.032582846182e+006 1.032582846182e+006 1.032582846182e+006 1.032582846182e+006 1.032582846182e+006 1.032582846182e+006 1.032582846182e+006 1.030867783997e+006 1.030867783997e+006 1.030867783997e+006 1.030867783997e+006 1.030867783997e+006 1.030867783997e+006 1.030867783997e+006 1.030867783997e+006 1.030867783997e+006 1.029152750573e+006 1.029152750573e+006 1.029152750573e+006 1.029152750573e+006 1.029152750573e+006 1.029152750573e+006 1.029152750573e+006 1.029152750573e+006 1.029152750573e+006 1.027437744260e+006 1.027437744260e+006 1.027437744260e+006 1.027437744260e+006 1.027437744260e+006 1.027437744260e+006 1.027437744260e+006 1.027437744260e+006 1.027437744260e+006 1.025722763411e+006 1.025722763411e+006 1.025722763411e+006 1.025722763411e+006 1.025722763411e+006 1.025722763411e+006 1.025722763411e+006 1.025722763411e+006 1.025722763411e+006 1.024007806386e+006 1.024007806386e+006 1.024007806386e+006 1.024007806386e+006 1.024007806386e+006 1.024007806386e+006 1.024007806386e+006 1.024007806386e+006 1.024007806386e+006 1.022292871548e+006 1.022292871548e+006 1.022292871548e+006 1.022292871548e+006 1.022292871548e+006 1.022292871548e+006 1.022292871548e+006 1.022292871548e+006 1.022292871548e+006 1.020577957267e+006 1.020577957267e+006 1.020577957267e+006 1.020577957267e+006 1.020577957267e+006 1.020577957267e+006 1.020577957267e+006 1.020577957267e+006 1.020577957267e+006 1.018863061916e+006 1.018863061916e+006 1.018863061916e+006 1.018863061916e+006 1.018863061916e+006 1.018863061916e+006 1.018863061916e+006 1.018863061916e+006 1.018863061916e+006 1.017148183870e+006 1.017148183870e+006 1.017148183870e+006 1.017148183870e+006 1.017148183870e+006 1.017148183870e+006 1.017148183870e+006 1.017148183870e+006 1.017148183870e+006 1.015433321510e+006 1.015433321510e+006 1.015433321510e+006 1.015433321510e+006 1.015433321510e+006 1.015433321510e+006 1.015433321510e+006 1.015433321510e+006 1.015433321510e+006 1.013718473219e+006 1.013718473219e+006 1.013718473219e+006 1.013718473219e+006 1.013718473219e+006 1.013718473219e+006 1.013718473219e+006 1.013718473219e+006 1.013718473218e+006 1.012003637381e+006 1.012003637381e+006 1.012003637381e+006 1.012003637381e+006 1.012003637381e+006 1.012003637381e+006 1.012003637381e+006 1.012003637381e+006 1.012003637381e+006 1.010288812386e+006 1.010288812386e+006 1.010288812386e+006 1.010288812386e+006 1.010288812386e+006 1.010288812386e+006 1.010288812386e+006 1.010288812386e+006 1.010288812386e+006 1.008573996622e+006 1.008573996622e+006 1.008573996622e+006 1.008573996622e+006 1.008573996622e+006 1.008573996622e+006 1.008573996622e+006 1.008573996622e+006 1.008573996622e+006 1.006859188481e+006 1.006859188481e+006 1.006859188481e+006 1.006859188481e+006 1.006859188481e+006 1.006859188481e+006 1.006859188481e+006 1.006859188481e+006 1.006859188481e+006 1.005144386355e+006 1.005144386355e+006 1.005144386355e+006 1.005144386355e+006 1.005144386355e+006 1.005144386355e+006 1.005144386355e+006 1.005144386355e+006 1.005144386355e+006 1.003429588637e+006 1.003429588637e+006 1.003429588637e+006 1.003429588637e+006 1.003429588637e+006 1.003429588637e+006 1.003429588637e+006 1.003429588637e+006 1.003429588637e+006 1.001714793720e+006 1.001714793720e+006 1.001714793720e+006 1.001714793720e+006 1.001714793720e+006 1.001714793720e+006 1.001714793720e+006 1.001714793720e+006 1.001714793720e+006 1.000000000000e+006 1.000000000000e+006 1.000000000000e+006 1.000000000000e+006 1.000000000000e+006 1.000000000000e+006 1.000000000000e+006 1.000000000000e+006 1.000000000000e+006 
        </DataArray>
        <DataArray type="Float64" Name="MOLAR_FRACTION" format="ascii">