<?xml version="1.0"?>
<VTKFile type="UnstructuredGrid" version="0.1" byte_order="LittleEndian">
  <UnstructuredGrid>
    <Piece NumberOfPoints="206" NumberOfCells="326">
      <Points>
        <DataArray type="Float64" NumberOfComponents="3" format="ascii">
          1.897435897436e+002 0.000000000000e+000 0.000000000000e+000
          1.931791020913e+002 4.394475469951e+000 0.000000000000e+000
          1.948717948718e+002 0.000000000000e+000 0.000000000000e+000
          5.880459463038e+000 1.099154902703e+001 0.000000000000e+000
          0.000000000000e+000 6.666666666655e+000 0.000000000000e+000
          0.000000000000e+000 1.333333333332e+001 0.000000000000e+000
          2.022497621136e+001 4.353446977749e+000 0.000000000000e+000
          2.051282051291e+001 0.000000000000e+000 0.000000000000e+000
          1.538461538468e+001 0.000000000000e+000 0.000000000000e+000
          1.711973192023e+001 9.822643375701e+000 0.000000000000e+000
          2.235754985755e+001 9.965277777778e+000 0.000000000000e+000
          1.342973104686e+001 5.024912353671e+000 0.000000000000e+000
          2.051282051273e+001 2.000000000000e+001 0.000000000000e+000
          1.990430525733e+001 1.515950912857e+001 0.000000000000e+000
          1.538461538455e+001 2.000000000000e+001 0.000000000000e+000
          1.275415082211e+002 1.500000000000e+001 0.000000000000e+000
          1.305226984145e+002 1.000000000000e+001 0.000000000000e+000
          1.266144349478e+002 1.000000000000e+001 0.000000000000e+000
          1.320283396971e+002 1.500000000000e+001 0.000000000000e+000
          1.275415082214e+002 5.000000000000e+000 0.000000000000e+000
          1.320283396974e+002 5.000000000000e+000 0.000000000000e+000
          2.662324775127e+001 5.694754464286e+000 0.000000000000e+000
          2.617521367521e+001 1.000000000000e+001 0.000000000000e+000
          2.532894973587e+001 1.397776144540e+001 0.000000000000e+000
          1.184289081109e+002 1.400000000000e+001 0.000000000000e+000
          1.217390520306e+002 1.000000000000e+001 0.000000000000e+000
          1.150696490874e+002 1.000602607727e+001 0.000000000000e+000
          1.222794923522e+002 1.500000000000e+001 0.000000000000e+000
          1.184289081111e+002 6.000000000000e+000 0.000000000000e+000
          1.222794923525e+002 5.000000000000e+000 0.000000000000e+000
          1.647570346228e+002 1.499982920203e+001 0.000000000000e+000
          1.610766879766e+002 9.999898274740e+000 0.000000000000e+000
          1.584898332400e+002 1.571424274568e+001 0.000000000000e+000
          7.586604251621e+001 5.621173932933e+000 0.000000000000e+000
          8.021655268624e+001 1.019499276048e+001 0.000000000000e+000
          8.189146271784e+001 4.117034117006e+000 0.000000000000e+000
          7.588302713352e+001 1.447660101075e+001 0.000000000000e+000
          8.201035504047e+001 1.604351572524e+001 0.000000000000e+000
          1.647575611852e+002 4.999583052019e+000 0.000000000000e+000
          1.589293847822e+002 4.146609780286e+000 0.000000000000e+000
          1.641025641024e+002 2.000000000000e+001 0.000000000000e+000
          1.692307692306e+002 2.000000000000e+001 0.000000000000e+000
          1.660230030600e+002 1.000000000000e+001 0.000000000000e+000
          1.697917692894e+002 1.499909577546e+001 0.000000000000e+000
          1.641025641028e+002 0.000000000000e+000 0.000000000000e+000
          1.692307692309e+002 0.000000000000e+000 0.000000000000e+000
          1.697948641857e+002 4.997649016204e+000 0.000000000000e+000
          1.743589743588e+002 2.000000000000e+001 0.000000000000e+000
          1.710911944708e+002 1.000000000000e+001 0.000000000000e+000
          1.749412615107e+002 1.499457465278e+001 0.000000000000e+000
          1.743589743591e+002 0.000000000000e+000 0.000000000000e+000
          1.749598308881e+002 4.985894097222e+000 0.000000000000e+000
          1.794871794871e+002 2.000000000000e+001 0.000000000000e+000
          1.769615825547e+002 9.964192708333e+000 0.000000000000e+000
          1.806150388551e+002 1.469347696151e+001 0.000000000000e+000
          1.794871794873e+002 0.000000000000e+000 0.000000000000e+000
          1.803838168879e+002 4.953657234265e+000 0.000000000000e+000
          1.846153846153e+002 2.000000000000e+001 0.000000000000e+000
          1.846153846155e+002 0.000000000000e+000 0.000000000000e+000
          1.858160403609e+002 4.891281862002e+000 0.000000000000e+000
          1.487179487182e+002 0.000000000000e+000 0.000000000000e+000
          1.505413635482e+002 5.088785165962e+000 0.000000000000e+000
          1.538461538464e+002 0.000000000000e+000 0.000000000000e+000
          5.128205128183e+001 2.000000000000e+001 0.000000000000e+000
          4.937524205543e+001 1.478507223003e+001 0.000000000000e+000
          4.615384615364e+001 2.000000000000e+001 0.000000000000e+000
          4.335527308620e+001 1.560308717176e+001 0.000000000000e+000
          4.102564102546e+001 2.000000000000e+001 0.000000000000e+000
          4.429011235569e+001 1.011123788964e+001 0.000000000000e+000
          3.589743589728e+001 2.000000000000e+001 0.000000000000e+000
          3.424338337179e+001 1.480928422469e+001 0.000000000000e+000
          3.076923076909e+001 2.000000000000e+001 0.000000000000e+000
          3.005689385761e+001 1.060364436599e+001 0.000000000000e+000
          6.153846153820e+001 2.000000000000e+001 0.000000000000e+000
          5.861144803786e+001 1.567337793620e+001 0.000000000000e+000
          5.641025641001e+001 2.000000000000e+001 0.000000000000e+000
          6.364098538444e+001 1.500000000000e+001 0.000000000000e+000
          5.989457932650e+001 1.030421617259e+001 0.000000000000e+000
          6.666666666639e+001 2.000000000000e+001 0.000000000000e+000
          6.863961921157e+001 1.499549437831e+001 0.000000000000e+000
          6.567188823475e+001 9.930555555556e+000 0.000000000000e+000
          8.717948717914e+001 2.000000000000e+001 0.000000000000e+000
          8.205128205096e+001 2.000000000000e+001 0.000000000000e+000
          8.825660559227e+001 1.457690124438e+001 0.000000000000e+000
          9.230769230733e+001 2.000000000000e+001 0.000000000000e+000
          8.616129659787e+001 8.733480538898e+000 0.000000000000e+000
          9.150074733547e+001 1.030748155382e+001 0.000000000000e+000
          1.384615384618e+002 0.000000000000e+000 0.000000000000e+000
          1.415932379237e+002 4.335026874129e+000 0.000000000000e+000
          1.435897435900e+002 0.000000000000e+000 0.000000000000e+000
          1.370080938287e+002 5.069444256391e+000 0.000000000000e+000
          1.404454238813e+002 9.718036725159e+000 0.000000000000e+000
          1.333333333336e+002 0.000000000000e+000 0.000000000000e+000
          1.076923076927e+002 0.000000000000e+000 0.000000000000e+000
          1.108991862601e+002 4.857696974887e+000 0.000000000000e+000
          1.128205128209e+002 0.000000000000e+000 0.000000000000e+000
          1.230769230773e+002 0.000000000000e+000 0.000000000000e+000
          1.282051282055e+002 0.000000000000e+000 0.000000000000e+000
          1.421648412768e+002 1.518915604417e+001 0.000000000000e+000
          1.384615384612e+002 2.000000000000e+001 0.000000000000e+000
          1.435897435894e+002 2.000000000000e+001 0.000000000000e+000
          1.370080938284e+002 1.506944425639e+001 0.000000000000e+000
          1.333333333330e+002 2.000000000000e+001 0.000000000000e+000
          1.230769230766e+002 2.000000000000e+001 0.000000000000e+000
          1.282051282048e+002 2.000000000000e+001 0.000000000000e+000
          1.106262295343e+002 1.449114286029e+001 0.000000000000e+000
          1.076923076919e+002 2.000000000000e+001 0.000000000000e+000
          1.128205128202e+002 2.000000000000e+001 0.000000000000e+000
          1.060408540078e+002 1.575486111111e+001 0.000000000000e+000
          5.803874767782e+001 4.824157678094e+000 0.000000000000e+000
          6.153846153872e+001 0.000000000000e+000 0.000000000000e+000
          5.641025641050e+001 0.000000000000e+000 0.000000000000e+000
          6.364098538470e+001 5.000000000000e+000 0.000000000000e+000
          6.666666666694e+001 0.000000000000e+000 0.000000000000e+000
          6.863961921185e+001 4.974991732804e+000 0.000000000000e+000
          9.032615013277e+001 4.937074209742e+000 0.000000000000e+000
          9.230769230805e+001 0.000000000000e+000 0.000000000000e+000
          8.717948717983e+001 0.000000000000e+000 0.000000000000e+000
          1.524809577360e+002 1.505950683102e+001 0.000000000000e+000
          1.487179487177e+002 2.000000000000e+001 0.000000000000e+000
          1.538461538459e+002 2.000000000000e+001 0.000000000000e+000
          1.472187406962e+002 1.523528621385e+001 0.000000000000e+000
          4.767577943456e+001 4.990079365079e+000 0.000000000000e+000
          5.128205128227e+001 0.000000000000e+000 0.000000000000e+000
          4.615384615405e+001 0.000000000000e+000 0.000000000000e+000
          5.289188460113e+001 4.768994659147e+000 0.000000000000e+000
          4.250523169876e+001 4.799709939732e+000 0.000000000000e+000
          4.102564102582e+001 0.000000000000e+000 0.000000000000e+000
          3.076923076937e+001 0.000000000000e+000 0.000000000000e+000
          2.564102564114e+001 0.000000000000e+000 0.000000000000e+000
          3.231012230340e+001 5.174437830688e+000 0.000000000000e+000
          3.589743589759e+001 0.000000000000e+000 0.000000000000e+000
          3.747197445908e+001 4.807502868680e+000 0.000000000000e+000
          1.589743589741e+002 2.000000000000e+001 0.000000000000e+000
          1.551353134763e+002 9.374350718944e+000 0.000000000000e+000
          7.179487179516e+001 0.000000000000e+000 0.000000000000e+000
          7.179487179458e+001 2.000000000000e+001 0.000000000000e+000
          1.179487179484e+002 2.000000000000e+001 0.000000000000e+000
          1.179487179491e+002 0.000000000000e+000 0.000000000000e+000
[...]
      <PointData Scalars="MEAN_PRESSURE">
        <DataArray type="Float64" Name="MEAN_PRESSURE" format="ascii">
          1.007396214248e+006 1.004918735622e+006 1.003698083589e+006 1.116755249543e+006 1.117585248331e+006 1.117924978558e+006 1.113297831848e+006 1.113196781061e+006 1.114575398887e+006 1.114143805133e+006 1.112665480841e+006 1.115066048249e+006 1.113215185559e+006 1.113392415788e+006 1.114609507364e+006 1.052135934373e+006 1.050011112384e+006 1.052795875027e+006 1.048936104675e+006 1.052135927788e+006 1.048936086446e+006 1.111324856777e+006 1.111457459107e+006 1.111745492646e+006 1.058594479456e+006 1.056256346710e+006 1.060960721662e+006 1.055873366529e+006 1.058594473894e+006 1.055873364619e+006 1.025413949179e+006 1.028066661238e+006 1.029930774048e+006 1.087150035408e+006 1.084432193037e+006 1.083370644579e+006 1.087139968301e+006 1.083298198673e+006 1.025413553757e+006 1.029614016915e+006 1.025885713568e+006 1.022188589236e+006 1.024501292726e+006 1.021784077176e+006 1.025885693122e+006 1.022188580247e+006 1.021781839443e+006 1.018490761625e+006 1.020847114637e+006 1.018070850468e+006 1.018490758059e+006 1.018057457159e+006 1.014792621845e+006 1.016613933799e+006 1.013979258742e+006 1.014792621179e+006 1.014146004032e+006 1.011094401135e+006 1.011094401038e+006 1.010228544161e+006 1.036966179469e+006 1.035654339099e+006 1.033275537541e+006 1.100987250935e+006 1.101933338778e+006 1.103468429829e+006 1.104755291630e+006 1.105785664708e+006 1.104336003870e+006 1.107924387320e+006 1.108578018783e+006 1.109879628936e+006 1.110136688277e+006 1.095569860479e+006 1.097172983468e+006 1.098350668510e+006 1.094392033494e+006 1.096479735420e+006 1.092659317501e+006 1.091507112520e+006 1.093236696006e+006 1.079958550995e+006 1.083266340648e+006 1.079256268994e+006 1.076579659939e+006 1.080624996234e+006 1.077115762390e+006 1.044332184770e+006 1.042085817551e+006 1.040652352783e+006 1.045373750806e+006 1.042909754672e+006 1.048003457590e+006 1.066108505546e+006 1.063878569793e+006 1.062536136589e+006 1.055308202062e+006 1.051663192600e+006 1.041675596433e+006 1.044332231782e+006 1.040652372308e+006 1.045373796746e+006 1.048003471999e+006 1.055308200893e+006 1.051663200044e+006 1.064068847175e+006 1.066108437921e+006 1.062535941737e+006 1.067250711205e+006 1.097483231439e+006 1.095570159708e+006 1.098351085131e+006 1.094392977615e+006 1.092659731693e+006 1.091507361389e+006 1.077892706402e+006 1.076578932291e+006 1.079958725107e+006 1.034258363494e+006 1.036966172495e+006 1.033275397619e+006 1.038044396019e+006 1.102749984806e+006 1.100988507249e+006 1.103470252931e+006 1.100176770570e+006 1.105135762734e+006 1.105786769697e+006 1.109880383281e+006 1.111638009770e+006 1.109313612940e+006 1.107926733759e+006 1.107288458722e+006 1.029581492649e+006 1.032347199711e+006 1.089630252848e+006 1.089630100095e+006 1.058934629930e+006 1.058934648438e+006 1.115772548151e+006 1.116327627477e+006 1.012144498050e+006 1.008284515757e+006 1.004823982870e+006 1.060940785277e+006 1.060940813853e+006 1.009255586697e+006 1.075485500013e+006 1.075189441080e+006 1.073139084453e+006 1.072483307105e+006 1.069645657644e+006 1.073137866957e+006 1.072273101145e+006 1.069644608859e+006 1.083269121625e+006 1.086500374676e+006 1.086500264405e+006 1.029581487075e+006 1.007396214186e+006 1.116814246333e+006 1.004195623422e+006 1.000000000000e+006 1.069654358632e+006 1.070854344907e+006 1.101398865105e+006 1.073910862415e+006 1.047007637756e+006 1.067751929425e+006 1.036288952167e+006 1.108230244722e+006 1.071234484335e+006 1.075033051824e+006 1.067426090026e+006 1.003698086139e+006 1.000000000000e+006 1.089599606389e+006 1.000000000000e+006 1.089453729260e+006 1.089453751489e+006 1.114954128891e+006 1.080513669892e+006 1.064824609393e+006 1.115561061358e+006 1.115906707535e+006 1.039218296889e+006 1.106585722056e+006 1.099291240857e+006 1.106804333011e+006 1.038849922861e+006 1.099575764603e+006 1.112435187892e+006 1.111643669240e+006 1.039628514843e+006 1.098995444524e+006 1.106349236195e+006 1.081990817220e+006 1.115859287984e+006 1.116994233100e+006 1.116998091532e+006 1.087090783639e+006 1.032723080093e+006 1.110433848273e+006 1.118044018299e+006 1.117627866825e+006 1.000000000000e+006 
        </DataArray>
        <DataArray type="Float64" Name="TOTAL_MASS_DENSITY" format="ascii">
          4.506613291873e-006 3.222593652020e-006 2.653628190982e-006 1.531135001940e-002 1.795146464027e-002 1.836464752548e-002 1.087279075341e-002 1.080469734062e-002 1.229677242162e-002 1.177168078051e-002 1.029300722907e-002 1.289530178107e-002 1.079846364702e-002 1.096488639166e-002 1.228852317942e-002 1.853064432092e-004 1.589448329796e-004 1.941442109752e-004 1.470487062237e-004 1.853132332778e-004 1.470655322527e-004 9.178545266676e-003 9.301306076901e-003 9.508533737142e-003 2.925653730490e-004 2.479458467076e-004 3.424682245790e-004 2.415146506194e-004 2.925708112672e-004 2.415175975485e-004 2.362088468721e-005 2.937907603749e-005 3.409621061256e-005 1.850558785500e-003 1.564492478141e-003 1.463802221866e-003 1.849102776853e-003 1.454838198238e-003 2.364275656006e-005 3.330564999622e-005 2.459610232952e-005 1.806289161700e-005 2.192846105078e-005 1.746740801046e-005 2.462557083215e-005 1.807821694597e-005 1.747534551311e-005 1.317746721002e-005 1.614549966174e-005 1.272047216663e-005 1.318666875453e-005 1.271510055147e-005 9.503639165415e-006 1.119428482813e-005 8.823441307808e-006 9.507224193976e-006 8.974134801322e-006 6.704127315720e-006 6.698795201560e-006 6.135070841019e-006 5.970214220092e-005 5.387092839195e-005 4.457065860008e-005 4.406297256843e-003 4.683149297461e-003 5.190228748466e-003 5.659878817448e-003 6.076450146898e-003 5.496336539967e-003 7.075134034022e-003 7.420196077155e-003 8.190918727329e-003 8.354657566566e-003 3.120587068295e-003 3.452202827187e-003 3.718828159444e-003 2.898597243368e-003 3.300948238724e-003 2.602412519736e-003 2.423058944235e-003 2.695042862538e-003 1.183627331837e-003 1.456067678339e-003 1.131097932195e-003 9.557531139051e-004 1.231653907370e-003 9.888212942625e-004 1.047788120753e-004 8.851186289547e-005 7.934213369950e-005 1.131851883523e-004 9.395024638695e-005 1.374413481214e-004 4.852641796296e-004 4.179843301389e-004 3.819633136495e-004 2.320956643007e-004 1.792329514779e-004 8.572355364107e-005 1.047353870514e-004 7.931783888848e-005 1.131444496370e-004 1.374264773847e-004 2.320941580913e-004 1.792247420666e-004 4.233902928626e-004 4.853076413098e-004 3.820918230815e-004 5.239874453201e-004 3.519190717118e-003 3.120395194624e-003 3.718553375779e-003 2.898011592835e-003 2.602154442901e-003 2.422904655401e-003 1.039110072717e-003 9.561987731947e-004 1.183505190253e-003 4.824301919003e-005 5.970294826396e-005 4.472961072657e-005 6.488290765818e-005 4.946366901308e-003 4.405473035238e-003 5.188982892015e-003 4.179811789145e-003 5.808910303813e-003 6.075511915275e-003 8.189234313727e-003 9.431462582093e-003 7.841175767482e-003 7.073194388849e-003 6.755029618724e-003 3.339175064540e-005 4.138900342743e-005 2.157315591836e-003 2.157410247602e-003 2.983546382962e-004 2.983447576427e-004 1.390988614511e-002 1.479154669744e-002 7.427605182961e-006 4.996928387568e-006 3.185941073485e-006 3.433595387204e-004 3.433368923707e-004 5.521654229306e-006 8.915638402172e-004 8.755314022557e-004 7.668995722147e-004 7.365123021890e-004 6.118746085820e-004 7.676693565368e-004 7.253119381809e-004 6.125507316996e-004 1.454328725839e-003 1.774439143717e-003 1.774507930320e-003 3.339648337972e-005 4.504208162480e-006 1.559428577031e-002 2.883023117403e-006 1.000000000000e-006 6.137084816343e-004 6.627100104398e-004 4.524652648523e-003 8.066309227030e-004 1.276230870311e-004 5.400932823478e-004 5.662221022363e-005 7.234929780088e-003 6.797438333792e-004 8.671272409488e-004 5.295530269857e-004 2.662687061312e-006 1.000000000000e-006 2.149350595952e-003 1.000000000000e-006 2.134382745555e-003 2.134369799757e-003 1.271252246113e-002 1.225980606490e-003 4.457758685027e-004 1.354043258254e-002 1.399976608804e-002 7.095719534927e-005 6.422397810679e-003 3.945874441317e-003 6.529697313954e-003 6.917798095361e-005 4.023512347564e-003 1.009273599456e-002 9.430059129015e-003 7.337848282008e-005 3.875850468138e-003 6.322042305232e-003 1.345629898651e-003 1.389971214988e-002 1.556193738312e-002 1.565616143168e-002 1.846982795165e-003 4.292062613646e-005 8.556837252831e-003 1.834263580668e-002 1.849772403959e-002 1.000000000000e-006 
        </DataArray>
      </PointData>
      <CellData>
        <DataArray type="Float64" Name="Capillary_Pressure" format="ascii">
          -3.664706705996e-018 1.512205735155e+004 -6.559463799250e-020 -1.090060059979e-020 -1.805844988047e-020 0.000000000000e+000 -7.122781508293e-022 -4.355327654757e-020 -6.781269378716e-017 -3.157644676223e-018 0.000000000000e+000 0.000000000000e+000 0.000000000000e+000 -4.523182009546e-020 -5.004477483370e-021 -2.803536392699e-022 -3.336758583007e-017 -4.821738590929e-017 -2.646237848803e-017 -1.632732436225e-017 0.000000000000e+000 -8.862217315860e-017 -1.532545953617e-016 -3.667216497082e-018 -1.266540498240e-017 -1.127519349444e-017 -1.335089161477e-017 -1.112501176354e-018 -3.418307123581e-018 -6.349191702246e-018 -1.457965121721e-017 0.000000000000e+000 -9.277895612003e-018 -1.322643716617e-017 -3.405516501437e-018 -7.018739090690e-018 0.000000000000e+000 -1.166054378761e-017 -3.913098777017e-018 -9.260252716488e-018 -3.437570611820e-018 -8.532709381838e-018 -8.688775521548e-018 -3.662261883604e-018 -5.669372132561e-020 -2.827165062001e-018 0.000000000000e+000 -7.655566479761e-018 -6.229993817287e-018 -9.568132471329e-018 -3.515982101304e-018 -2.388810063811e-017 -5.813137006776e-022 -2.939651264225e-022 -1.813364506064e-023 -1.087646068427e-023 -2.970591390585e-022 -1.119202520709e-022 -5.519917637201e-023 -2.670787869918e-022 -1.758178233087e-022 -2.371976008898e-022 -8.410280357775e-024 -4.643929175484e-022 -5.666910174640e-022 -3.426426023876e-017 -6.385233450859e-017 -4.781466981607e-017 -8.977611508356e-017 -3.133503496324e-017 -2.612270986869e-017 -4.733414679588e-017 -3.401080779953e-017 -4.562598356264e-017 -3.555560504550e-017 -5.600266641823e-017 -8.450714601358e-017 -1.805193979523e-017 -1.539429926484e-017 -1.333565864745e-017 -9.192823327710e-018 -5.595346742207e-018 -3.232201464445e-017 -2.914505647591e-017 -2.565096743057e-017 -1.138235200038e-017 -2.552661046935e-022 -2.959445942849e-022 0.000000000000e+000 0.000000000000e+000 -1.764602992019e-023 -1.644926086464e-022 -6.213362946532e-023 -1.252240845253e-016 -1.124619342333e-017 0.000000000000e+000 -1.550611244157e-017 -4.058795970524e-022 -3.113527228912e-022 -7.924888254350e-024 -3.638742346028e-022 -4.865185983355e-022 -4.433458145984e-020 -4.202129284450e-020 -2.095695139090e-020 -2.503490951320e-023 -1.974745758313e-020 -1.695525729415e-020 -1.353384694943e-017 -6.256085568539e-018 -2.657628692745e-018 -2.050195606502e-022 -3.482173677440e-022 -3.179635710629e-017 -5.613248642719e-017 0.000000000000e+000 -2.289314763594e-017 0.000000000000e+000 -6.745071536747e-017 -6.978796594598e-022 -3.377575268445e-022 -9.687474986785e-017 -1.799804376626e-016 -1.607809988830e-017 -3.656273900028e-019 0.000000000000e+000 -5.237160436991e-017 -3.216968168281e-017 -3.599855359655e-017 -1.034056363363e-016 0.000000000000e+000 -2.444273023527e-020 -1.498097883293e-020 -2.093105760372e-018 -7.830911177632e-018 -4.067017338410e-018 -4.555490109350e-018 -7.650387856844e-019 -7.865307664295e-019 -7.214971584621e-017 -4.195158473454e-017 -4.460250991091e-018 -6.948186973232e-017 -3.808018349045e-018 -2.081921391318e-017 -8.907589889482e-018 -4.672090778361e-017 -2.009752574263e-017 -2.748388058112e-017 -5.767877172816e-017 -5.018115102649e-017 -5.668583676915e-018 -7.402019102321e-018 -2.043898812058e-017 -2.094971988552e-017 -1.045531949181e-016 -1.693036020358e-017 -7.259023962908e-018 -7.544486933321e-018 -4.666217105074e-018 -4.717898496420e-017 -7.145579843378e-017 -2.115277291062e-018 -4.905890104662e-017 -4.103372591788e-018 -1.306899732060e-017 -8.499651652995e-018 -2.184967858303e-017 -5.092741069151e-021 -1.975669915067e-020 -8.645276242347e-014 -4.326384908971e-018 -4.800112108377e-022 -1.426592711778e-019 -7.608231376357e-017 -1.014951619283e-016 -2.349982119054e-023 0.000000000000e+000 -3.372648130765e-017 -8.260529249251e-017 -1.226262704782e-017 -1.014977488300e-017 -1.987814913823e-017 0.000000000000e+000 0.000000000000e+000 0.000000000000e+000 0.000000000000e+000 -2.161049461908e-020 -1.234262682869e-016 0.000000000000e+000 -6.960289646647e-017 -3.674849658015e-017 -1.840862684649e-016 -6.300976362857e-017 0.000000000000e+000 -1.556124236238e-017 -3.929672330687e-017 0.000000000000e+000 -1.293689972603e-017 0.000000000000e+000 -6.404843423070e-021 0.000000000000e+000 -8.574523311095e-017 -1.437757021126e-017 -5.803306075516e-017 -5.307703385491e-017 -3.295476073995e-017 0.000000000000e+000 -2.773918225074e-017 -6.822020988066e-019 -3.667453447036e-019 -4.974963746652e-019 -1.760550156304e-017 -4.856463892927e-017 -1.322682269428e-016 0.000000000000e+000 -2.739095281018e-018 -3.014828668040e-018 0.000000000000e+000 -3.639070094073e-018 -1.789289847757e-018 -3.437665937926e-018 -4.079051419416e-018 -4.279138804084e-016 -1.414582482210e-016 -6.352858764394e-019 -1.503134609480e-018 0.000000000000e+000 0.000000000000e+000 -1.242470217966e-016 0.000000000000e+000 -1.254367354840e-016 -4.736878243047e-016 -5.080689927177e-023 -1.542379088327e-021 -2.924536775889e-018 0.000000000000e+000 -1.024648490173e-016 -1.088635559546e-017 -3.473012020222e-017 -2.863974878175e-017 -1.783692483454e-019 -1.984645678133e-020 -4.607389371265e-022 -1.137569887382e-018 -1.010480351043e-022 -3.331724133584e-021 -1.143060917101e-019 -5.634346120598e-020 -2.670899927282e-022 -2.495745185065e-017 -1.945046656399e-017 -5.987079466571e-017 -6.548146135294e-018 -2.613671811585e-022 -1.062835126452e-022 -8.207708045678e-017 0.000000000000e+000 -2.357204171779e-022 -2.025963453085e-022 -3.862971263950e-017 -5.679137341755e-018 0.000000000000e+000 -5.263642043867e-022 -7.358427526223e-022 -2.591872125520e-023 -8.208656826901e-022 -1.454981041442e-022 0.000000000000e+000 -1.897682048484e-017 -1.818663247742e-022 -3.447927492179e-022 -2.603121971898e-022 -1.214643588408e-022 0.000000000000e+000 -1.957309458039e-016 -1.258505202353e-016 -4.762293088187e-017 -4.803648447520e-023 -3.571279857488e-022 -3.068488347526e-023 -1.799653050676e-022 0.000000000000e+000 -8.888236175709e-023 -1.745897162524e-022 -1.197383205884e-022 -4.496219102486e-017 -2.686985870548e-017 -2.775701902857e-017 -7.452239875728e-022 -1.837988366578e-022 -2.291903970145e-022 -1.499893380765e-022 -9.381273225104e-023 -7.444642666117e-023 0.000000000000e+000 -1.073316326243e-017 -1.145631478780e-017 -6.433544825196e-022 -3.443831119845e-023 -4.794958239418e-022 -7.832556820377e-017 -2.801776950196e-017 -5.986596375734e-017 -5.157023027041e-017 -1.859808451553e-017 -2.282380475372e-017 -1.015128935737e-017 -1.713391529624e-022 -7.551506051481e-022 -3.880005483260e-022 -1.911093017450e-022 0.000000000000e+000 -1.335046727671e-016 -8.106413351698e-017 -2.687057724626e-017 -4.233891729068e-016 -1.986170115100e-017 -3.209007968159e-018 1.943142928452e+004 4.142690915391e+003 4.650017570045e+003 1.734943630692e+004 -1.387987854762e-020 -4.304857395793e-019 -1.356157472273e-018 
        </DataArray>
        <DataArray type="Float64" Name="Gas_Pressure" format="ascii">