<?xml version="1.0"?>
<VTKFile type="UnstructuredGrid" version="0.1" byte_order="LittleEndian">
  <UnstructuredGrid>
    <Piece NumberOfPoints="206" NumberOfCells="326">
      <Points>
        <DataArray type="Float64" NumberOfComponents="3" format="ascii">
          1.897435897436e+002 0.000000000000e+000 0.000000000000e+000
          1.931791020913e+002 4.394475469951e+000 0.000000000000e+000
          1.948717948718e+002 0.000000000000e+000 0.000000000000e+000
          5.880459463038e+000 1.099154902703e+001 0.000000000000e+000
          0.000000000000e+000 6.666666666655e+000 0.000000000000e+000
          0.000000000000e+000 1.333333333332e+001 0.000000000000e+000
          2.022497621136e+001 4.353446977749e+000 0.000000000000e+000
          2.051282051291e+001 0.000000000000e+000 0.000000000000e+000
          1.538461538468e+001 0.000000000000e+000 0.000000000000e+000
          1.711973192023e+001 9.822643375701e+000 0.000000000000e+000
          2.235754985755e+001 9.965277777778e+000 0.000000000000e+000
          1.342973104686e+001 5.024912353671e+000 0.000000000000e+000
          2.051282051273e+001 2.000000000000e+001 0.000000000000e+000
          1.990430525733e+001 1.515950912857e+001 0.000000000000e+000
          1.538461538455e+001 2.000000000000e+001 0.000000000000e+000
          1.275415082211e+002 1.500000000000e+001 0.000000000000e+000
          1.305226984145e+002 1.000000000000e+001 0.000000000000e+000
          1.266144349478e+002 1.000000000000e+001 0.000000000000e+000
          1.320283396971e+002 1.500000000000e+001 0.000000000000e+000
          1.275415082214e+002 5.000000000000e+000 0.000000000000e+000
          1.320283396974e+002 5.000000000000e+000 0.000000000000e+000
          2.662324775127e+001 5.694754464286e+000 0.000000000000e+000
          2.617521367521e+001 1.000000000000e+001 0.000000000000e+000
          2.532894973587e+001 1.397776144540e+001 0.000000000000e+000
          1.184289081109e+002 1.400000000000e+001 0.000000000000e+000
          1.217390520306e+002 1.000000000000e+001 0.000000000000e+000
          1.150696490874e+002 1.000602607727e+001 0.000000000000e+000
          1.222794923522e+002 1.500000000000e+001 0.000000000000e+000
          1.184289081111e+002 6.000000000000e+000 0.000000000000e+000
          1.222794923525e+002 5.000000000000e+000 0.000000000000e+000
          1.647570346228e+002 1.499982920203e+001 0.000000000000e+000
          1.610766879766e+002 9.999898274740e+000 0.000000000000e+000
          1.584898332400e+002 1.571424274568e+001 0.000000000000e+000
          7.586604251621e+001 5.621173932933e+000 0.000000000000e+000
          8.021655268624e+001 1.019499276048e+001 0.000000000000e+000
          8.189146271784e+001 4.117034117006e+000 0.000000000000e+000
          7.588302713352e+001 1.447660101075e+001 0.000000000000e+000
          8.201035504047e+001 1.604351572524e+001 0.000000000000e+000
          1.647575611852e+002 4.999583052019e+000 0.000000000000e+000
          1.589293847822e+002 4.146609780286e+000 0.000000000000e+000
          1.641025641024e+002 2.000000000000e+001 0.000000000000e+000
          1.692307692306e+002 2.000000000000e+001 0.000000000000e+000
          1.660230030600e+002 1.000000000000e+001 0.000000000000e+000
          1.697917692894e+002 1.499909577546e+001 0.000000000000e+000
          1.641025641028e+002 0.000000000000e+000 0.000000000000e+000
          1.692307692309e+002 0.000000000000e+000 0.000000000000e+000
          1.697948641857e+002 4.997649016204e+000 0.000000000000e+000
          1.743589743588e+002 2.000000000000e+001 0.000000000000e+000
          1.710911944708e+002 1.000000000000e+001 0.000000000000e+000
          1.749412615107e+002 1.499457465278e+001 0.000000000000e+000
          1.743589743591e+002 0.000000000000e+000 0.000000000000e+000
          1.749598308881e+002 4.985894097222e+000 0.000000000000e+000
          1.794871794871e+002 2.000000000000e+001 0.000000000000e+000
          1.769615825547e+002 9.964192708333e+000 0.000000000000e+000
          1.806150388551e+002 1.469347696151e+001 0.000000000000e+000
          1.794871794873e+002 0.000000000000e+000 0.000000000000e+000
          1.803838168879e+002 4.953657234265e+000 0.000000000000e+000
          1.846153846153e+002 2.000000000000e+001 0.000000000000e+000
          1.846153846155e+002 0.000000000000e+000 0.000000000000e+000
          1.858160403609e+002 4.891281862002e+000 0.000000000000e+000
          1.487179487182e+002 0.000000000000e+000 0.000000000000e+000
          1.505413635482e+002 5.088785165962e+000 0.000000000000e+000
          1.538461538464e+002 0.000000000000e+000 0.000000000000e+000
          5.128205128183e+001 2.000000000000e+001 0.000000000000e+000
          4.937524205543e+001 1.478507223003e+001 0.000000000000e+000
          4.615384615364e+001 2.000000000000e+001 0.000000000000e+000
          4.335527308620e+001 1.560308717176e+001 0.000000000000e+000
          4.102564102546e+001 2.000000000000e+001 0.000000000000e+000
          4.429011235569e+001 1.011123788964e+001 0.000000000000e+000
          3.589743589728e+001 2.000000000000e+001 0.000000000000e+000
          3.424338337179e+001 1.480928422469e+001 0.000000000000e+000
          3.076923076909e+001 2.000000000000e+001 0.000000000000e+000
          3.005689385761e+001 1.060364436599e+001 0.000000000000e+000
          6.153846153820e+001 2.000000000000e+001 0.000000000000e+000
          5.861144803786e+001 1.567337793620e+001 0.000000000000e+000
          5.641025641001e+001 2.000000000000e+001 0.000000000000e+000
          6.364098538444e+001 1.500000000000e+001 0.000000000000e+000
          5.989457932650e+001 1.030421617259e+001 0.000000000000e+000
          6.666666666639e+001 2.000000000000e+001 0.000000000000e+000
          6.863961921157e+001 1.499549437831e+001 0.000000000000e+000
          6.567188823475e+001 9.930555555556e+000 0.000000000000e+000
          8.717948717914e+001 2.000000000000e+001 0.000000000000e+000
          8.205128205096e+001 2.000000000000e+001 0.000000000000e+000
          8.825660559227e+001 1.457690124438e+001 0.000000000000e+000
          9.230769230733e+001 2.000000000000e+001 0.000000000000e+000
          8.616129659787e+001 8.733480538898e+000 0.000000000000e+000
          9.150074733547e+001 1.030748155382e+001 0.000000000000e+000
          1.384615384618e+002 0.000000000000e+000 0.000000000000e+000
          1.415932379237e+002 4.335026874129e+000 0.000000000000e+000
          1.435897435900e+002 0.000000000000e+000 0.000000000000e+000
          1.370080938287e+002 5.069444256391e+000 0.000000000000e+000
          1.404454238813e+002 9.718036725159e+000 0.000000000000e+000
          1.333333333336e+002 0.000000000000e+000 0.000000000000e+000
          1.076923076927e+002 0.000000000000e+000 0.000000000000e+000
          1.108991862601e+002 4.857696974887e+000 0.000000000000e+000
          1.128205128209e+002 0.000000000000e+000 0.000000000000e+000
          1.230769230773e+002 0.000000000000e+000 0.000000000000e+000
          1.282051282055e+002 0.000000000000e+000 0.000000000000e+000
          1.421648412768e+002 1.518915604417e+001 0.000000000000e+000
          1.384615384612e+002 2.000000000000e+001 0.000000000000e+000
          1.435897435894e+002 2.000000000000e+001 0.000000000000e+000
          1.370080938284e+002 1.506944425639e+001 0.000000000000e+000
          1.333333333330e+002 2.000000000000e+001 0.000000000000e+000
          1.230769230766e+002 2.000000000000e+001 0.000000000000e+000
          1.282051282048e+002 2.000000000000e+001 0.000000000000e+000
          1.106262295343e+002 1.449114286029e+001 0.000000000000e+000
          1.076923076919e+002 2.000000000000e+001 0.000000000000e+000
          1.128205128202e+002 2.000000000000e+001 0.000000000000e+000
          1.060408540078e+002 1.575486111111e+001 0.000000000000e+000
          5.803874767782e+001 4.824157678094e+000 0.000000000000e+000
          6.153846153872e+001 0.000000000000e+000 0.000000000000e+000
          5.641025641050e+001 0.000000000000e+000 0.000000000000e+000
          6.364098538470e+001 5.000000000000e+000 0.000000000000e+000
          6.666666666694e+001 0.000000000000e+000 0.000000000000e+000
          6.863961921185e+001 4.974991732804e+000 0.000000000000e+000
          9.032615013277e+001 4.937074209742e+000 0.000000000000e+000
          9.230769230805e+001 0.000000000000e+000 0.000000000000e+000
          8.717948717983e+001 0.000000000000e+000 0.000000000000e+000
          1.524809577360e+002 1.505950683102e+001 0.000000000000e+000
          1.487179487177e+002 2.000000000000e+001 0.000000000000e+000
          1.538461538459e+002 2.000000000000e+001 0.000000000000e+000
          1.472187406962e+002 1.523528621385e+001 0.000000000000e+000
          4.767577943456e+001 4.990079365079e+000 0.000000000000e+000
          5.128205128227e+001 0.000000000000e+000 0.000000000000e+000
          4.615384615405e+001 0.000000000000e+000 0.000000000000e+000
          5.289188460113e+001 4.768994659147e+000 0.000000000000e+000
          4.250523169876e+001 4.799709939732e+000 0.000000000000e+000
          4.102564102582e+001 0.000000000000e+000 0.000000000000e+000
          3.076923076937e+001 0.000000000000e+000 0.000000000000e+000
          2.564102564114e+001 0.000000000000e+000 0.000000000000e+000
          3.231012230340e+001 5.174437830688e+000 0.000000000000e+000
          3.589743589759e+001 0.000000000000e+000 0.000000000000e+000
          3.747197445908e+001 4.807502868680e+000 0.000000000000e+000
          1.589743589741e+002 2.000000000000e+001 0.000000000000e+000
          1.551353134763e+002 9.374350718944e+000 0.000000000000e+000
          7.179487179516e+001 0.000000000000e+000 0.000000000000e+000
          7.179487179458e+001 2.000000000000e+001 0.000000000000e+000
          1.179487179484e+002 2.000000000000e+001 0.000000000000e+000
          1.179487179491e+002 0.000000000000e+000 0.000000000000e+000
[...]
      <PointData Scalars="MEAN_PRESSURE">
        <DataArray type="Float64" Name="MEAN_PRESSURE" format="ascii">
          9.999999999982e+005 9.999999999988e+005 9.999999999991e+005 1.000002701915e+006 1.000015053357e+006 1.000016020309e+006 1.000000003928e+006 1.000000001760e+006 9.999999157334e+005 9.999999500535e+005 1.000000006908e+006 9.999998431157e+005 1.000000002130e+006 1.000000003518e+006 9.999999440053e+005 9.999999999869e+005 9.999999999875e+005 9.999999999868e+005 9.999999999877e+005 9.999999999869e+005 9.999999999877e+005 1.000000001261e+006 1.000000000780e+006 1.000000001512e+006 9.999999999853e+005 9.999999999859e+005 9.999999999847e+005 9.999999999860e+005 9.999999999853e+005 9.999999999860e+005 9.999999999936e+005 9.999999999930e+005 9.999999999925e+005 9.999999999776e+005 9.999999999784e+005 9.999999999787e+005 9.999999999776e+005 9.999999999787e+005 9.999999999936e+005 9.999999999926e+005 9.999999999935e+005 9.999999999945e+005 9.999999999939e+005 9.999999999946e+005 9.999999999935e+005 9.999999999945e+005 9.999999999946e+005 9.999999999954e+005 9.999999999948e+005 9.999999999955e+005 9.999999999954e+005 9.999999999955e+005 9.999999999963e+005 9.999999999958e+005 9.999999999965e+005 9.999999999963e+005 9.999999999965e+005 9.999999999972e+005 9.999999999972e+005 9.999999999974e+005 9.999999999908e+005 9.999999999911e+005 9.999999999917e+005 9.999999999727e+005 9.999999999734e+005 9.999999999739e+005 9.999999999700e+005 9.999999999651e+005 9.999999999709e+005 9.999999999931e+005 1.000000000056e+006 9.999999998417e+005 9.999999993772e+005 9.999999999750e+005 9.999999999745e+005 9.999999999742e+005 9.999999999754e+005 9.999999999747e+005 9.999999999759e+005 9.999999999763e+005 9.999999999758e+005 9.999999999796e+005 9.999999999787e+005 9.999999999798e+005 9.999999999806e+005 9.999999999795e+005 9.999999999804e+005 9.999999999889e+005 9.999999999895e+005 9.999999999898e+005 9.999999999886e+005 9.999999999893e+005 9.999999999880e+005 9.999999999833e+005 9.999999999839e+005 9.999999999843e+005 9.999999999861e+005 9.999999999871e+005 9.999999999896e+005 9.999999999889e+005 9.999999999898e+005 9.999999999886e+005 9.999999999880e+005 9.999999999861e+005 9.999999999871e+005 9.999999999839e+005 9.999999999833e+005 9.999999999843e+005 9.999999999831e+005 9.999999999744e+005 9.999999999750e+005 9.999999999741e+005 9.999999999754e+005 9.999999999759e+005 9.999999999763e+005 9.999999999802e+005 9.999999999806e+005 9.999999999796e+005 9.999999999914e+005 9.999999999908e+005 9.999999999917e+005 9.999999999905e+005 9.999999999739e+005 9.999999999731e+005 9.999999999715e+005 9.999999999733e+005 9.999999999641e+005 9.999999999739e+005 9.999999987499e+005 1.000000003431e+006 9.999999997199e+005 1.000000000065e+006 1.000000000011e+006 9.999999999926e+005 9.999999999919e+005 9.999999999769e+005 9.999999999769e+005 9.999999999852e+005 9.999999999852e+005 1.000000156636e+006 1.000000965107e+006 9.999999999970e+005 9.999999999979e+005 9.999999999988e+005 9.999999999847e+005 9.999999999847e+005 9.999999999977e+005 9.999999999809e+005 9.999999999809e+005 9.999999999815e+005 9.999999999817e+005 9.999999999824e+005 9.999999999815e+005 9.999999999817e+005 9.999999999824e+005 9.999999999787e+005 9.999999999778e+005 9.999999999778e+005 9.999999999926e+005 9.999999999982e+005 1.000003857274e+006 9.999999999990e+005 1.000000000000e+006 9.999999999824e+005 9.999999999821e+005 9.999999999732e+005 9.999999999813e+005 9.999999999882e+005 9.999999999829e+005 9.999999999909e+005 1.000000000045e+006 9.999999999820e+005 9.999999999810e+005 9.999999999830e+005 9.999999999991e+005 1.000000000000e+006 9.999999999769e+005 1.000000000000e+006 9.999999999769e+005 9.999999999769e+005 9.999999131299e+005 9.999999999795e+005 9.999999999837e+005 9.999999336521e+005 1.000000315598e+006 9.999999999902e+005 9.999999999682e+005 9.999999999736e+005 9.999999999674e+005 9.999999999903e+005 9.999999999736e+005 1.000000003759e+006 1.000000000322e+006 9.999999999901e+005 9.999999999738e+005 9.999999999689e+005 9.999999999791e+005 1.000000145699e+006 1.000003578854e+006 1.000004160939e+006 9.999999999776e+005 9.999999999918e+005 9.999999995467e+005 1.000016044245e+006 1.000016874818e+006 1.000000000000e+006 
        </DataArray>
        <DataArray type="Float64" Name="TOTAL_MASS_DENSITY" format="ascii">
          1.000000000000e-006 1.000000000000e-006 1.000000000000e-006 3.010186163580e-004 1.672494309847e-003 1.779861296143e-003 1.439909834506e-006 1.199095949384e-006 -8.352682947241e-006 -4.541973951647e-006 1.770589730700e-006 -1.641584241914e-005 1.240122874100e-006 1.394375117542e-006 -5.213938785848e-006 1.000000000000e-006 1.000000000000e-006 1.000000000000e-006 1.000000000000e-006 1.000000000000e-006 1.000000000000e-006 1.143528549843e-006 1.090143191989e-006 1.171396500606e-006 1.000000000000e-006 1.000000000000e-006 1.000000000000e-006 1.000000000000e-006 1.000000000000e-006 1.000000000000e-006 1.000000000000e-006 1.000000000000e-006 1.000000000000e-006 9.999999990929e-007 9.999999998728e-007 1.000000000790e-006 9.999999997030e-007 1.000000000163e-006 1.000000000000e-006 1.000000000000e-006 1.000000000000e-006 1.000000000000e-006 1.000000000000e-006 1.000000000000e-006 1.000000000000e-006 1.000000000000e-006 1.000000000000e-006 1.000000000000e-006 1.000000000000e-006 1.000000000000e-006 1.000000000000e-006 1.000000000000e-006 1.000000000000e-006 1.000000000000e-006 1.000000000000e-006 1.000000000000e-006 1.000000000000e-006 1.000000000000e-006 1.000000000000e-006 1.000000000000e-006 1.000000000000e-006 1.000000000000e-006 1.000000000000e-006 9.999461492125e-007 1.000065761225e-006 1.000180138615e-006 9.998103836561e-007 9.993054878748e-007 9.998905920533e-007 1.002527156434e-006 1.009568979671e-006 9.858201528895e-007 9.342502199244e-007 9.999986209561e-007 1.000003502461e-006 1.000008101908e-006 9.999992265477e-007 1.000002713440e-006 1.000000262498e-006 1.000000122983e-006 9.999997391711e-007 9.999999996759e-007 1.000000000867e-006 1.000000000015e-006 1.000000000083e-006 9.999999999213e-007 1.000000000016e-006 1.000000000000e-006 1.000000000000e-006 1.000000000000e-006 1.000000000000e-006 1.000000000000e-006 1.000000000000e-006 1.000000000000e-006 1.000000000000e-006 1.000000000000e-006 1.000000000000e-006 1.000000000000e-006 1.000000000000e-006 1.000000000000e-006 1.000000000000e-006 1.000000000000e-006 1.000000000000e-006 1.000000000000e-006 1.000000000000e-006 1.000000000000e-006 9.999999999998e-007 1.000000000000e-006 9.999999999998e-007 1.000002628478e-006 1.000000005410e-006 1.000002299886e-006 9.999991813467e-007 1.000000041858e-006 1.000000147227e-006 1.000000000082e-006 9.999999999890e-007 9.999999999559e-007 1.000000000000e-006 1.000000000000e-006 1.000000000000e-006 1.000000000000e-006 1.000148211324e-006 9.999945921979e-007 9.999196093793e-007 9.999777583390e-007 9.991681172077e-007 1.000285171371e-006 8.645798097703e-007 1.384418351423e-006 9.722575234498e-007 1.010479660362e-006 1.004512508525e-006 1.000000000000e-006 1.000000000000e-006 9.999999884787e-007 9.999999614634e-007 1.000000000000e-006 1.000000000000e-006 1.839696065472e-005 1.081677793908e-004 1.000000000000e-006 1.000000000000e-006 1.000000000000e-006 1.000000000000e-006 1.000000000000e-006 1.000000000000e-006 9.999999999845e-007 9.999999999819e-007 9.999999999865e-007 1.000000000005e-006 1.000000000001e-006 1.000000000003e-006 1.000000000003e-006 9.999999999990e-007 1.000000000660e-006 9.999999988405e-007 1.000000001160e-006 1.000000000000e-006 1.000000000000e-006 4.293071091516e-004 1.000000000000e-006 1.000000000000e-006 9.999999999990e-007 9.999999999995e-007 1.000022700149e-006 9.999999999990e-007 1.000000000000e-006 9.999999999997e-007 1.000000000000e-006 1.008348606001e-006 1.000000000002e-006 9.999999999888e-007 1.000000000000e-006 1.000000000000e-006 1.000000000000e-006 1.000000011329e-006 1.000000000000e-006 9.999999907623e-007 9.999999902220e-007 -8.641593969853e-006 9.999999995642e-007 1.000000000000e-006 -6.362710926029e-006 3.604887232992e-005 1.000000000000e-006 9.996905788121e-007 9.999807696997e-007 9.996103700512e-007 1.000000000000e-006 9.999899295213e-007 1.420971458560e-006 1.039220555026e-006 1.000000000000e-006 9.999955073049e-007 9.997545462758e-007 9.999999999158e-007 1.718023793515e-005 3.983904886452e-004 4.630235845222e-004 9.999999987064e-007 1.000000000000e-006 9.530896147112e-007 1.782517646174e-003 1.874744410959e-003 1.000000000000e-006 
        </DataArray>
      </PointData>
      <CellData>
        <DataArray type="Float64" Name="Capillary_Pressure" format="ascii">
          -6.333660096245e-023 -1.079154116111e-023 -8.087290467802e-015 -1.127147197274e-014 -3.263759081182e-014 -1.384226662034e-016 -1.833254455463e-015 -4.375016522805e-015 0.000000000000e+000 0.000000000000e+000 -9.935542096547e-023 -7.108627927143e-023 -1.996361930230e-024 -2.283348778272e-015 -2.256176341923e-021 -4.834864679838e-024 -5.506006350121e-022 -5.122015542463e-022 -1.600966685196e-022 -1.038090664935e-022 -1.324615449563e-023 -3.925254211253e-022 -3.406610802884e-021 -1.666877389862e-022 -2.585301658547e-022 -1.379880824947e-022 -1.853205952980e-023 -4.051768737458e-022 -2.197167942923e-022 -1.976182565116e-022 -1.148270239433e-022 -3.201826949237e-022 -7.638365460088e-023 -7.639190910195e-023 -1.050950029713e-022 -1.746170640456e-022 -1.835143779348e-022 -5.515084146522e-023 -6.866520318484e-023 -1.218734995271e-022 0.000000000000e+000 -2.086141477023e-022 -6.865661597374e-023 -3.970547810488e-023 -8.141465438419e-023 -5.582883303559e-023 -1.013123956033e-022 -9.493529421798e-023 -1.202133174128e-022 -8.361085700831e-023 -1.708667815539e-022 0.000000000000e+000 -7.333923501205e-021 -4.177577886692e-019 -3.803120190768e-018 0.000000000000e+000 -9.673088306582e-025 -1.718330113424e-020 0.000000000000e+000 -5.969511080231e-021 -8.668803362259e-022 -2.649948496889e-020 -1.480200436092e-020 -2.826297492543e-021 -4.492821170666e-021 -1.066039930554e-023 -1.945967330527e-021 -4.099792728819e-022 0.000000000000e+000 0.000000000000e+000 0.000000000000e+000 0.000000000000e+000 0.000000000000e+000 -9.851881233316e-023 -1.435218549042e-022 0.000000000000e+000 -1.301999958175e-022 0.000000000000e+000 -1.630332311364e-023 0.000000000000e+000 -7.043787142244e-023 -8.637119917380e-023 0.000000000000e+000 0.000000000000e+000 -6.093359965934e-022 -6.913544377887e-022 -2.031374031624e-022 0.000000000000e+000 -1.829510258510e-022 -2.128899996955e-021 -1.989972518101e-020 -3.570250112027e-022 -1.259868997488e-020 0.000000000000e+000 -6.427484453394e-023 -3.104049064632e-024 -8.790309361988e-023 0.000000000000e+000 -9.054614467901e-021 0.000000000000e+000 -4.036479575717e-018 0.000000000000e+000 -6.813679020924e-021 -1.133793062344e-015 0.000000000000e+000 -9.536216398274e-021 0.000000000000e+000 -1.025909211351e-016 -2.745310809378e-022 -2.493635809824e-022 -1.987713226557e-022 -2.687484706590e-019 -4.190890610282e-020 0.000000000000e+000 0.000000000000e+000 -1.647806986092e-022 0.000000000000e+000 -1.128486061863e-022 -4.595939070858e-023 0.000000000000e+000 -9.177033323207e-022 -2.854261415201e-022 0.000000000000e+000 -1.823880129540e-023 -3.201852443073e-023 -1.035982561301e-022 0.000000000000e+000 -1.267958807201e-022 -1.084997747945e-022 0.000000000000e+000 -2.887984409531e-022 -4.436781043826e-021 -1.826962804038e-024 -1.420804731193e-022 -7.611307266978e-023 -7.655734867197e-023 -1.471778338860e-022 -1.458973876084e-022 -1.892205692842e-022 0.000000000000e+000 -1.091151457637e-022 -3.685077020474e-022 -2.695112754279e-022 -1.455635507100e-023 0.000000000000e+000 -1.618593124935e-022 -1.614887969181e-022 -2.367101622169e-023 -1.538462504262e-022 -1.532703829928e-022 -6.749132275004e-022 -2.099642803948e-022 -5.791607693826e-022 0.000000000000e+000 -4.530732176577e-022 0.000000000000e+000 0.000000000000e+000 0.000000000000e+000 -1.402659886281e-022 -3.826228975409e-022 -5.754442888372e-022 -6.206771847358e-022 -2.133360826032e-022 -8.470856848300e-022 -1.223390575604e-022 -1.667289839079e-022 -2.624335670071e-023 -2.219213612347e-022 -5.661976526140e-015 0.000000000000e+000 -1.159753379168e-023 -1.692166798453e-022 -6.155212522071e-024 -3.957468280608e-022 -1.244800779990e-021 0.000000000000e+000 -2.253669541441e-018 -1.913569352796e-019 -2.720443171426e-022 0.000000000000e+000 0.000000000000e+000 -4.263938308608e-023 -3.556506439728e-022 0.000000000000e+000 0.000000000000e+000 0.000000000000e+000 -2.951254597615e-017 -7.500840007437e-016 -4.475950927569e-022 -2.805880537689e-022 -6.862817594352e-022 -9.262138277000e-023 -1.389625262861e-022 -6.148423222929e-022 0.000000000000e+000 -6.845511953684e-023 -2.867370256664e-023 0.000000000000e+000 0.000000000000e+000 -1.202673348970e-020 -1.358470942686e-016 -9.708558158667e-023 0.000000000000e+000 -4.763335198022e-022 -3.060576040194e-022 0.000000000000e+000 -2.664632764223e-022 -2.650881328194e-022 -4.031034050244e-022 -1.558571821357e-022 -7.345983173313e-023 -4.150279981605e-023 -1.241143033836e-021 -1.778628595805e-022 -1.945958149628e-022 -8.225530257987e-022 -3.805761980237e-022 -7.222446412781e-024 -1.117953516839e-022 -1.336296322649e-022 -3.452218697596e-022 -5.683932839880e-023 -1.212733629756e-022 -4.851097017760e-021 -2.465375911984e-021 -7.801560464287e-022 -4.111944967392e-022 -5.770244425384e-023 -4.503713039612e-022 -4.729602975311e-022 -1.503591316693e-022 -9.090194777638e-022 -9.939147592529e-023 -3.749860804274e-014 -7.261972465536e-015 -1.403574365477e-021 -1.010329973277e-021 -5.839634850024e-022 -1.321825559478e-022 -6.986438892264e-023 -6.995166017374e-023 -1.079522648902e-023 0.000000000000e+000 -3.341988207153e-021 0.000000000000e+000 -2.146167030417e-018 -8.276909078317e-015 -1.893006393100e-021 -3.589269768089e-014 -9.750149363487e-020 -5.444043241665e-025 -5.592827505014e-022 -2.412394195618e-022 -1.723118471791e-023 -1.536237896839e-024 0.000000000000e+000 -2.794318826927e-022 -1.131416759828e-021 -3.873303667130e-018 -8.676988931188e-020 0.000000000000e+000 -1.448892739872e-022 -9.664543579955e-021 -3.732429870743e-019 -8.036979640223e-024 -6.026572549387e-024 -2.966294702442e-024 -9.576212571919e-016 -3.787367765554e-022 0.000000000000e+000 -6.173886063611e-020 -4.198758208657e-020 -1.314123198616e-021 -3.523574023811e-021 -1.751129140060e-022 -2.046061867276e-022 -3.346703897757e-022 0.000000000000e+000 -1.366582135526e-023 -3.916957073346e-021 -9.072543925416e-022 -1.309137508422e-024 -4.605304450523e-024 0.000000000000e+000 -7.370605345526e-020 -1.667775546527e-021 0.000000000000e+000 -4.067056908034e-023 -6.959314315100e-023 -9.913226007796e-020 -4.357721761850e-019 0.000000000000e+000 -5.658398923061e-021 -1.025934103670e-017 -2.796784983098e-020 0.000000000000e+000 0.000000000000e+000 -2.698015688863e-022 -1.081816564314e-019 -7.226378590991e-020 -2.297693086103e-019 0.000000000000e+000 -6.312318250483e-023 -3.909391927405e-022 -2.074544488802e-021 -1.263052742073e-022 -1.649589283113e-022 0.000000000000e+000 -8.898501193387e-017 -1.928728297640e-016 -7.089771835343e-017 -6.302789495994e-016 -5.829657405332e-021 -1.478590884243e-021 -8.018369353519e-022 -1.216735144280e-021 -5.830778885245e-022 -9.541192871908e-023 -8.193084856070e-023 -5.365261020821e-024 -5.907207350704e-024 -7.465167952709e-024 -4.914177044422e-024 -6.905287997072e-024 -8.649506388283e-022 -3.957442931068e-022 
        </DataArray>
        <DataArray type="Float64" Name="Gas_Pressure" format="ascii">