<?xml version="1.0"?>
<VTKFile type="UnstructuredGrid" version="0.1" byte_order="LittleEndian">
  <UnstructuredGrid>
    <Piece NumberOfPoints="206" NumberOfCells="326">
      <Points>
        <DataArray type="Float64" NumberOfComponents="3" format="ascii">
          1.897435897436e+002 0.000000000000e+000 0.000000000000e+000
          1.931791020913e+002 4.394475469951e+000 0.000000000000e+000
          1.948717948718e+002 0.000000000000e+000 0.000000000000e+000
          5.880459463038e+000 1.099154902703e+001 0.000000000000e+000
          0.000000000000e+000 6.666666666655e+000 0.000000000000e+000
          0.000000000000e+000 1.333333333332e+001 0.000000000000e+000
          2.022497621136e+001 4.353446977749e+000 0.000000000000e+000
          2.051282051291e+001 0.000000000000e+000 0.000000000000e+000
          1.538461538468e+001 0.000000000000e+000 0.000000000000e+000
          1.711973192023e+001 9.822643375701e+000 0.000000000000e+000
          2.235754985755e+001 9.965277777778e+000 0.000000000000e+000
          1.342973104686e+001 5.024912353671e+000 0.000000000000e+000
          2.051282051273e+001 2.000000000000e+001 0.000000000000e+000
          1.990430525733e+001 1.515950912857e+001 0.000000000000e+000
          1.538461538455e+001 2.000000000000e+001 0.000000000000e+000
          1.275415082211e+002 1.500000000000e+001 0.000000000000e+000
          1.305226984145e+002 1.000000000000e+001 0.000000000000e+000
          1.266144349478e+002 1.000000000000e+001 0.000000000000e+000
          1.320283396971e+002 1.500000000000e+001 0.000000000000e+000
          1.275415082214e+002 5.000000000000e+000 0.000000000000e+000
          1.320283396974e+002 5.000000000000e+000 0.000000000000e+000
          2.662324775127e+001 5.694754464286e+000 0.000000000000e+000
          2.617521367521e+001 1.000000000000e+001 0.000000000000e+000
          2.532894973587e+001 1.397776144540e+001 0.000000000000e+000
          1.184289081109e+002 1.400000000000e+001 0.000000000000e+000
          1.217390520306e+002 1.000000000000e+001 0.000000000000e+000
          1.150696490874e+002 1.000602607727e+001 0.000000000000e+000
          1.222794923522e+002 1.500000000000e+001 0.000000000000e+000
          1.184289081111e+002 6.000000000000e+000 0.000000000000e+000
          1.222794923525e+002 5.000000000000e+000 0.000000000000e+000
          1.647570346228e+002 1.499982920203e+001 0.000000000000e+000
          1.610766879766e+002 9.999898274740e+000 0.000000000000e+000
          1.584898332400e+002 1.571424274568e+001 0.000000000000e+000
          7.586604251621e+001 5.621173932933e+000 0.000000000000e+000
          8.021655268624e+001 1.019499276048e+001 0.000000000000e+000
          8.189146271784e+001 4.117034117006e+000 0.000000000000e+000
          7.588302713352e+001 1.447660101075e+001 0.000000000000e+000
          8.201035504047e+001 1.604351572524e+001 0.000000000000e+000
          1.647575611852e+002 4.999583052019e+000 0.000000000000e+000
          1.589293847822e+002 4.146609780286e+000 0.000000000000e+000
          1.641025641024e+002 2.000000000000e+001 0.000000000000e+000
          1.692307692306e+002 2.000000000000e+001 0.000000000000e+000
          1.660230030600e+002 1.000000000000e+001 0.000000000000e+000
          1.697917692894e+002 1.499909577546e+001 0.000000000000e+000
          1.641025641028e+002 0.000000000000e+000 0.000000000000e+000
          1.692307692309e+002 0.000000000000e+000 0.000000000000e+000
          1.697948641857e+002 4.997649016204e+000 0.000000000000e+000
          1.743589743588e+002 2.000000000000e+001 0.000000000000e+000
          1.710911944708e+002 1.000000000000e+001 0.000000000000e+000
          1.749412615107e+002 1.499457465278e+001 0.000000000000e+000
          1.743589743591e+002 0.000000000000e+000 0.000000000000e+000
          1.749598308881e+002 4.985894097222e+000 0.000000000000e+000
          1.794871794871e+002 2.000000000000e+001 0.000000000000e+000
          1.769615825547e+002 9.964192708333e+000 0.000000000000e+000
          1.806150388551e+002 1.469347696151e+001 0.000000000000e+000
          1.794871794873e+002 0.000000000000e+000 0.000000000000e+000
          1.803838168879e+002 4.953657234265e+000 0.000000000000e+000
          1.846153846153e+002 2.000000000000e+001 0.000000000000e+000
          1.846153846155e+002 0.000000000000e+000 0.000000000000e+000
          1.858160403609e+002 4.891281862002e+000 0.000000000000e+000
          1.487179487182e+002 0.000000000000e+000 0.000000000000e+000
          1.505413635482e+002 5.088785165962e+000 0.000000000000e+000
          1.538461538464e+002 0.000000000000e+000 0.000000000000e+000
          5.128205128183e+001 2.000000000000e+001 0.000000000000e+000
          4.937524205543e+001 1.478507223003e+001 0.000000000000e+000
          4.615384615364e+001 2.000000000000e+001 0.000000000000e+000
          4.335527308620e+001 1.560308717176e+001 0.000000000000e+000
          4.102564102546e+001 2.000000000000e+001 0.000000000000e+000
          4.429011235569e+001 1.011123788964e+001 0.000000000000e+000
          3.589743589728e+001 2.000000000000e+001 0.000000000000e+000
          3.424338337179e+001 1.480928422469e+001 0.000000000000e+000
          3.076923076909e+001 2.000000000000e+001 0.000000000000e+000
          3.005689385761e+001 1.060364436599e+001 0.000000000000e+000
          6.153846153820e+001 2.000000000000e+001 0.000000000000e+000
          5.861144803786e+001 1.567337793620e+001 0.000000000000e+000
          5.641025641001e+001 2.000000000000e+001 0.000000000000e+000
          6.364098538444e+001 1.500000000000e+001 0.000000000000e+000
          5.989457932650e+001 1.030421617259e+001 0.000000000000e+000
          6.666666666639e+001 2.000000000000e+001 0.000000000000e+000
          6.863961921157e+001 1.499549437831e+001 0.000000000000e+000
          6.567188823475e+001 9.930555555556e+000 0.000000000000e+000
          8.717948717914e+001 2.000000000000e+001 0.000000000000e+000
          8.205128205096e+001 2.000000000000e+001 0.000000000000e+000
          8.825660559227e+001 1.457690124438e+001 0.000000000000e+000
          9.230769230733e+001 2.000000000000e+001 0.000000000000e+000
          8.616129659787e+001 8.733480538898e+000 0.000000000000e+000
          9.150074733547e+001 1.030748155382e+001 0.000000000000e+000
          1.384615384618e+002 0.000000000000e+000 0.000000000000e+000
          1.415932379237e+002 4.335026874129e+000 0.000000000000e+000
          1.435897435900e+002 0.000000000000e+000 0.000000000000e+000
          1.370080938287e+002 5.069444256391e+000 0.000000000000e+000
          1.404454238813e+002 9.718036725159e+000 0.000000000000e+000
          1.333333333336e+002 0.000000000000e+000 0.000000000000e+000
          1.076923076927e+002 0.000000000000e+000 0.000000000000e+000
          1.108991862601e+002 4.857696974887e+000 0.000000000000e+000
          1.128205128209e+002 0.000000000000e+000 0.000000000000e+000
          1.230769230773e+002 0.000000000000e+000 0.000000000000e+000
          1.282051282055e+002 0.000000000000e+000 0.000000000000e+000
          1.421648412768e+002 1.518915604417e+001 0.000000000000e+000
          1.384615384612e+002 2.000000000000e+001 0.000000000000e+000
          1.435897435894e+002 2.000000000000e+001 0.000000000000e+000
          1.370080938284e+002 1.506944425639e+001 0.000000000000e+000
          1.333333333330e+002 2.000000000000e+001 0.000000000000e+000
          1.230769230766e+002 2.000000000000e+001 0.000000000000e+000
          1.282051282048e+002 2.000000000000e+001 0.000000000000e+000
          1.106262295343e+002 1.449114286029e+001 0.000000000000e+000
          1.076923076919e+002 2.000000000000e+001 0.000000000000e+000
          1.128205128202e+002 2.000000000000e+001 0.000000000000e+000
          1.060408540078e+002 1.575486111111e+001 0.000000000000e+000
          5.803874767782e+001 4.824157678094e+000 0.000000000000e+000
          6.153846153872e+001 0.000000000000e+000 0.000000000000e+000
          5.641025641050e+001 0.000000000000e+000 0.000000000000e+000
          6.364098538470e+001 5.000000000000e+000 0.000000000000e+000
          6.666666666694e+001 0.000000000000e+000 0.000000000000e+000
          6.863961921185e+001 4.974991732804e+000 0.000000000000e+000
          9.032615013277e+001 4.937074209742e+000 0.000000000000e+000
          9.230769230805e+001 0.000000000000e+000 0.000000000000e+000
          8.717948717983e+001 0.000000000000e+000 0.000000000000e+000
          1.524809577360e+002 1.505950683102e+001 0.000000000000e+000
          1.487179487177e+002 2.000000000000e+001 0.000000000000e+000
          1.538461538459e+002 2.000000000000e+001 0.000000000000e+000
          1.472187406962e+002 1.523528621385e+001 0.000000000000e+000
          4.767577943456e+001 4.990079365079e+000 0.000000000000e+000
          5.128205128227e+001 0.000000000000e+000 0.000000000000e+000
          4.615384615405e+001 0.000000000000e+000 0.000000000000e+000
          5.289188460113e+001 4.768994659147e+000 0.000000000000e+000
          4.250523169876e+001 4.799709939732e+000 0.000000000000e+000
          4.102564102582e+001 0.000000000000e+000 0.000000000000e+000
          3.076923076937e+001 0.000000000000e+000 0.000000000000e+000
          2.564102564114e+001 0.000000000000e+000 0.000000000000e+000
          3.231012230340e+001 5.174437830688e+000 0.000000000000e+000
          3.589743589759e+001 0.000000000000e+000 0.000000000000e+000
          3.747197445908e+001 4.807502868680e+000 0.000000000000e+000
          1.589743589741e+002 2.000000000000e+001 0.000000000000e+000
          1.551353134763e+002 9.374350718944e+000 0.000000000000e+000
          7.179487179516e+001 0.000000000000e+000 0.000000000000e+000
          7.179487179458e+001 2.000000000000e+001 0.000000000000e+000
          1.179487179484e+002 2.000000000000e+001 0.000000000000e+000
          1.179487179491e+002 0.000000000000e+000 0.000000000000e+000
[...]
      <PointData Scalars="MEAN_PRESSURE">
        <DataArray type="Float64" Name="MEAN_PRESSURE" format="ascii">
          1.000000000022e+006 1.000000000013e+006 1.000000000010e+006 1.000082568999e+006 1.000101848688e+006 1.000102034063e+006 1.000045953551e+006 1.000045535696e+006 1.000056745964e+006 1.000052707144e+006 1.000041866290e+006 1.000061434441e+006 1.000045492662e+006 1.000046673128e+006 1.000056723793e+006 1.000000014691e+006 1.000000010765e+006 1.000000016075e+006 1.000000009236e+006 1.000000014689e+006 1.000000009237e+006 1.000034240437e+006 1.000035115431e+006 1.000036456477e+006 1.000000037293e+006 1.000000026384e+006 1.000000050853e+006 1.000000025119e+006 1.000000037286e+006 1.000000025113e+006 1.000000000283e+006 1.000000000419e+006 1.000000000547e+006 1.000001622144e+006 1.000001156149e+006 1.000001007788e+006 1.000001619569e+006 1.000000992407e+006 1.000000000284e+006 1.000000000526e+006 1.000000000305e+006 1.000000000178e+006 1.000000000250e+006 1.000000000169e+006 1.000000000306e+006 1.000000000179e+006 1.000000000169e+006 1.000000000106e+006 1.000000000149e+006 1.000000000101e+006 1.000000000106e+006 1.000000000101e+006 1.000000000064e+006 1.000000000083e+006 1.000000000058e+006 1.000000000064e+006 1.000000000059e+006 1.000000000039e+006 1.000000000039e+006 1.000000000034e+006 1.000000001578e+006 1.000000001295e+006 1.000000000901e+006 1.000008927449e+006 1.000010010131e+006 1.000012167105e+006 1.000014296381e+006 1.000016306446e+006 1.000013524637e+006 1.000021541640e+006 1.000023467662e+006 1.000028025480e+006 1.000029021482e+006 1.000004583878e+006 1.000005583022e+006 1.000006445940e+006 1.000003965426e+006 1.000005108561e+006 1.000003205468e+006 1.000002782958e+006 1.000003430558e+006 1.000000654007e+006 1.000000999596e+006 1.000000594553e+006 1.000000420983e+006 1.000000706655e+006 1.000000451633e+006 1.000000004727e+006 1.000000003391e+006 1.000000002738e+006 1.000000005491e+006 1.000000003786e+006 1.000000008094e+006 1.000000104567e+006 1.000000076822e+006 1.000000063950e+006 1.000000023196e+006 1.000000013787e+006 1.000000003179e+006 1.000000004721e+006 1.000000002737e+006 1.000000005484e+006 1.000000008094e+006 1.000000023205e+006 1.000000013789e+006 1.000000078946e+006 1.000000104616e+006 1.000000064075e+006 1.000000122769e+006 1.000005791907e+006 1.000004582289e+006 1.000006443205e+006 1.000003961778e+006 1.000003203690e+006 1.000002781791e+006 1.000000500849e+006 1.000000422459e+006 1.000000654417e+006 1.000000001049e+006 1.000000001580e+006 1.000000000914e+006 1.000000001849e+006 1.000011110368e+006 1.000008918997e+006 1.000012152977e+006 1.000008068640e+006 1.000014999815e+006 1.000016293026e+006 1.000027996129e+006 1.000035941836e+006 1.000025909068e+006 1.000021514187e+006 1.000019792256e+006 1.000000000533e+006 1.000000000784e+006 1.000002206184e+006 1.000002207006e+006 1.000000038530e+006 1.000000038504e+006 1.000069829650e+006 1.000077097701e+006 1.000000000045e+006 1.000000000026e+006 1.000000000013e+006 1.000000051608e+006 1.000000051619e+006 1.000000000029e+006 1.000000364980e+006 1.000000352427e+006 1.000000267259e+006 1.000000246996e+006 1.000000168035e+006 1.000000268757e+006 1.000000238655e+006 1.000000168980e+006 1.000000994793e+006 1.000001483783e+006 1.000001484234e+006 1.000000000534e+006 1.000000000022e+006 1.000084950243e+006 1.000000000011e+006 1.000000000000e+006 1.000000170060e+006 1.000000198720e+006 1.000009384315e+006 1.000000297409e+006 1.000000006951e+006 1.000000129766e+006 1.000000001424e+006 1.000022426301e+006 1.000000209582e+006 1.000000345872e+006 1.000000125208e+006 1.000000000010e+006 1.000000000000e+006 1.000002182877e+006 1.000000000000e+006 1.000002162175e+006 1.000002161679e+006 1.000060091540e+006 1.000000703526e+006 1.000000087935e+006 1.000066807123e+006 1.000070794183e+006 1.000000002192e+006 1.000018041114e+006 1.000007217710e+006 1.000018618140e+006 1.000000002102e+006 1.000007506374e+006 1.000040491731e+006 1.000035941715e+006 1.000000002350e+006 1.000006983917e+006 1.000017542591e+006 1.000000852826e+006 1.000069791332e+006 1.000084697979e+006 1.000085024539e+006 1.000001620756e+006 1.000000000849e+006 1.000030296898e+006 1.000102046828e+006 1.000102186142e+006 1.000000000000e+006 
        </DataArray>
        <DataArray type="Float64" Name="TOTAL_MASS_DENSITY" format="ascii">
          1.001389478692e-006 1.000786325946e-006 1.000571638863e-006 9.169244827761e-003 1.131001684258e-002 1.133059954671e-002 5.103553168474e-003 5.057155243985e-003 6.301916419518e-003 5.853456143888e-003 4.649714279275e-003 6.822513550500e-003 5.052378638782e-003 5.183454544722e-003 6.299456291996e-003 2.623709458235e-006 2.188035978138e-006 2.777278439050e-006 2.018427665454e-006 2.623504693117e-006 2.018555336409e-006 3.802958229160e-003 3.900115824642e-003 4.049023279770e-003 5.132466870903e-006 3.921514261019e-006 6.637770925990e-006 3.781050493407e-006 5.131608272871e-006 3.780419012027e-006 1.027771544874e-006 1.042421449893e-006 1.056401444335e-006 1.811060860278e-004 1.293635368640e-004 1.128900862723e-004 1.808201758465e-004 1.111821839340e-004 1.027910211072e-006 1.054169864933e-006 1.030080726596e-006 1.016563829413e-006 1.024180051380e-006 1.015606525404e-006 1.030257717363e-006 1.016640031766e-006 1.015655292658e-006 1.009102309730e-006 1.013485014716e-006 1.008579330465e-006 1.009136300966e-006 1.008589711870e-006 1.004975665375e-006 1.006769078794e-006 1.004369655683e-006 1.004986042603e-006 1.004522018895e-006 1.002685240757e-006 1.002676673351e-006 1.002306323942e-006 1.169857689756e-006 1.138586625041e-006 1.095247327496e-006 9.922674432746e-004 1.112485633885e-003 1.351990625228e-003 1.588420016424e-003 1.811612945214e-003 1.502727419700e-003 2.392915897958e-003 2.606776405858e-003 3.112865643251e-003 3.223458986128e-003 5.099684727062e-004 6.209108318595e-004 7.167270825564e-004 4.412973400643e-004 5.682279056289e-004 3.569136060249e-004 3.099993590628e-004 3.819070249929e-004 7.360760300067e-005 1.119804463672e-004 6.700610195498e-005 4.773368055027e-005 7.945348131555e-005 5.113700364570e-005 1.518469409847e-006 1.370426153093e-006 1.298128752506e-006 1.603095682127e-006 1.414209369257e-006 1.891824937300e-006 1.260129167509e-005 9.520859601296e-006 8.091719168097e-006 3.567609685800e-006 2.523349070117e-006 1.346910178850e-006 1.517799788980e-006 1.298034118333e-006 1.602412212832e-006 1.891846956126e-006 3.568593180356e-006 2.523655734372e-006 9.756669907765e-006 1.260673381785e-005 8.105685623599e-006 1.462215710931e-005 6.441048233807e-004 5.097921393049e-004 7.164232697599e-004 4.408922303352e-004 3.567163057565e-004 3.098698247196e-004 5.660162522648e-005 4.789758865832e-005 7.365308405526e-005 1.111526926854e-006 1.170040637615e-006 1.096665079295e-006 1.199843705978e-006 1.234653055061e-003 9.913289727472e-004 1.350421722063e-003 8.969074230052e-004 1.666527217532e-003 1.810122235269e-003 3.109606070174e-003 3.991877071791e-003 2.877863813971e-003 2.389867087038e-003 2.198668214107e-003 1.054936436928e-006 1.082331418488e-006 2.459561203115e-004 2.460473070317e-004 5.269700511705e-006 5.266878673431e-006 7.754697085059e-003 8.561724415765e-003 1.003217332199e-006 1.001648062337e-006 1.000780210305e-006 6.721621036229e-006 6.722822348467e-006 1.001911045329e-006 4.151543184743e-005 4.012160498234e-005 3.066510692549e-005 2.841520131989e-005 1.964799104190e-005 3.083139617227e-005 2.748916038777e-005 1.975300613327e-005 1.114471054355e-004 1.657429631137e-004 1.657929752834e-004 1.054992036516e-006 1.001385306772e-006 9.433651442701e-003 1.000655571939e-006 1.000000000000e-006 1.987292135368e-005 2.305500826426e-005 1.042996518087e-003 3.401278549908e-005 1.765062131127e-006 1.539899287473e-005 1.152908586071e-006 2.491146136720e-003 2.426109156529e-005 3.939377342298e-005 1.489295923070e-005 1.000582022314e-006 1.000000000000e-006 2.433680772691e-004 1.000000000000e-006 2.410694517606e-004 2.410143310127e-004 6.673402915756e-003 7.910601128768e-005 1.075463090094e-005 7.419083730740e-003 7.861799664161e-003 1.237768101252e-006 2.004225943254e-003 8.024223060103e-004 2.068297690574e-003 1.227750210260e-006 8.344748595643e-004 4.497087506559e-003 3.991865355313e-003 1.255197945441e-006 7.764625372505e-004 1.948871082954e-003 9.568368915940e-005 7.750441559832e-003 9.405640979261e-003 9.441901154596e-003 1.809519195595e-004 1.089575751551e-006 3.365078639116e-003 1.133201480748e-002 1.134748632788e-002 1.000000000000e-006 
        </DataArray>
      </PointData>
      <CellData>
        <DataArray type="Float64" Name="Capillary_Pressure" format="ascii">
          -1.256034880318e-023 -1.355528486228e-023 -3.546476305723e-024 -3.218852309365e-024 -7.724445615185e-024 -5.104895078511e-024 -6.232200741629e-024 -1.459067147113e-023 -7.734255307339e-024 -8.739602587705e-024 -9.654190390570e-024 -5.319054918693e-024 -4.701266455129e-024 -7.945623122431e-024 -9.126492361229e-024 -3.220187293145e-024 -6.001078300171e-026 -5.702452681675e-025 -5.472968621001e-024 -2.080985268256e-024 -1.883873055687e-024 -8.612136891954e-024 -6.669882013106e-024 -2.633397521967e-024 -2.414154893732e-024 -2.027540477973e-024 -5.688235973396e-024 -2.793494154736e-024 -1.731920715773e-024 -3.021900545088e-024 -3.276264936117e-024 0.000000000000e+000 -2.698734231893e-024 -6.613255214647e-025 0.000000000000e+000 -2.608943251127e-026 0.000000000000e+000 -5.813645450961e-024 -4.069514665761e-024 -1.149885531638e-024 -1.029308943072e-023 -5.897096118273e-024 -2.283118278664e-024 -3.874432312376e-024 -1.682321703613e-024 -8.116872124686e-025 -4.597461225248e-024 -4.917843632001e-024 -1.205940619072e-023 -6.160430000242e-024 -2.964739976205e-024 0.000000000000e+000 -9.220527117924e-024 -1.001519764976e-023 -9.442529393217e-024 -3.585873699084e-024 -4.776543958858e-024 -2.697728227423e-024 -9.051685304444e-024 -3.743176805971e-024 -5.605625792223e-024 -1.046567919111e-023 -5.212264440324e-026 -5.223115997058e-024 -4.400726973335e-024 -3.624455532999e-024 -1.299356200515e-023 -1.536191955452e-024 -9.644951258873e-024 -1.026923715996e-023 -3.504817025570e-024 -5.649500228643e-024 -8.751632567884e-024 -4.434732343264e-024 -7.571316045583e-024 -4.271947057289e-024 -5.669056667104e-024 -1.224117511427e-023 -9.531685810252e-024 -3.054805645350e-024 -3.862639040789e-024 -8.606971003547e-024 -4.357958651896e-024 -8.016854123913e-024 -9.718579444561e-024 -3.691615661328e-024 -6.260036109994e-024 -9.778018735120e-026 -9.330307724505e-024 -7.228422690030e-024 -1.063796102892e-023 -1.447761451021e-023 -1.005624833589e-023 -5.958042279647e-024 -2.916593987976e-024 -1.426903814834e-024 -4.517007727907e-024 -5.904087408648e-024 -6.151982335780e-024 -1.755616929316e-023 -3.786432327182e-024 -9.392400748610e-024 -1.074658018502e-023 -8.863125470956e-024 -1.935671825102e-024 -1.001635197049e-023 -2.184222005132e-024 -1.376470160566e-023 -1.167183595695e-024 -1.497583359575e-024 -4.151475181149e-024 -1.406069811165e-023 -6.603985170168e-024 -9.494583304577e-024 -1.295904081311e-023 -7.935122968438e-025 -8.231208830720e-024 -2.313781644223e-024 -9.343551801670e-024 -8.903717513755e-024 -1.106426317003e-024 -6.114799345833e-024 -1.564113123620e-023 -1.052593623863e-023 -4.713252693547e-024 -6.622311765485e-024 0.000000000000e+000 -1.193814825601e-023 -8.261540169083e-024 -1.070418461202e-023 -7.952065706349e-024 -4.641073518720e-024 -3.466765010972e-024 -6.578717992087e-024 -5.520435768636e-026 -5.685089116781e-024 -3.138812183362e-024 -4.309958960981e-024 -1.329147628284e-024 -3.609970442442e-024 -5.599635713504e-024 -6.491219783758e-024 -6.892303651531e-024 -1.676141493372e-024 -6.518463225352e-024 -5.829776281822e-024 -5.384079024803e-024 -1.001679717861e-023 -1.018721868873e-024 -8.866361104084e-024 -5.087718504220e-024 -7.677170294898e-024 -9.643921992467e-024 -5.113684650282e-024 -4.836096318540e-024 -7.485844088696e-024 -2.915185498696e-024 -2.645879411891e-024 -6.859802210397e-024 -9.117035166904e-024 -3.411265125831e-024 -1.151915538018e-023 -5.993286462060e-024 -1.952969175120e-024 -3.304743929428e-024 -4.796023689249e-024 -3.414772507160e-024 -3.663953115449e-024 -6.706271561900e-024 -3.541111938181e-024 -2.323143910919e-024 -9.893007480220e-024 -4.194889457430e-024 0.000000000000e+000 -1.704530454531e-024 -1.028673233405e-023 -9.108260613157e-024 -3.020761764815e-024 -1.405259209142e-023 -5.822073644583e-024 -3.637481726058e-025 -3.743943565490e-025 -9.203826650625e-024 -5.589279833568e-024 -4.827117974117e-024 -9.069796824581e-025 -8.094382082712e-024 -6.697534541560e-024 -9.247886870626e-024 -9.097059241420e-024 -6.874720204270e-024 -7.199084328712e-024 -8.534433702588e-024 -1.190072757061e-023 -4.764877206214e-024 -5.003999084598e-024 -4.482929899248e-024 -4.917823888853e-024 -2.575119655197e-024 -8.998610402709e-024 -7.785416011519e-024 -2.483039851510e-025 -3.959289259590e-024 -5.301994655956e-024 -1.034494466390e-023 -4.962840877588e-024 -6.187873140907e-024 -1.144488648238e-023 -5.497145043955e-024 -8.082272747661e-024 -1.274445823097e-024 -2.801771492734e-024 -5.863759354711e-024 -8.897042129432e-025 -1.026064672921e-023 -1.070085745366e-023 -1.488892098027e-024 -4.687658246361e-024 -1.312469732883e-023 -8.937159577014e-024 -5.638959681830e-024 -1.192617695720e-024 -9.083269430547e-024 -1.631987583018e-025 -1.113716598119e-023 0.000000000000e+000 -6.877113176320e-024 -8.291944858874e-024 -6.778903418582e-024 -1.089487319665e-023 -5.617968949864e-024 -4.485448132003e-024 -6.966226252520e-024 -9.152694760887e-024 -3.448247344358e-024 -5.986271071761e-024 -5.437643012517e-024 -4.854479029411e-025 -7.788274322973e-024 -5.985640982519e-024 -5.538964905182e-024 -2.964686813819e-024 -1.341827587838e-023 -9.545105298306e-024 -8.775109003251e-024 -4.860379273994e-024 -1.363222532783e-023 -1.544483298004e-023 -2.999345400855e-024 -7.617006691327e-024 -4.074573924118e-024 -2.463633064251e-024 -3.102691662556e-024 -7.052085506456e-024 -9.909992410038e-024 -5.121019815649e-024 -2.572775830024e-024 -1.415936137281e-023 -3.045392046630e-024 -5.761059789554e-024 -1.002986751404e-023 -8.041479340342e-024 -1.721680113957e-023 -2.239014876192e-023 -1.031317574438e-023 -8.070019696082e-025 -1.110541372133e-023 -5.880690032231e-024 -6.821197601840e-024 -6.686285164471e-024 -2.808585759835e-024 -1.318696417777e-023 -1.817639745826e-024 -8.132351399436e-024 -9.010567953868e-024 -1.079547785870e-023 -4.394835287325e-024 -1.546899840324e-023 -8.370435133212e-024 -1.176469271550e-023 -1.662978035039e-023 -1.861007664255e-024 -7.118613511705e-024 -8.394819400449e-024 -1.071284652634e-023 -1.093829756335e-023 -1.705441991015e-024 -7.276866546824e-024 -1.052520716033e-023 -5.807851016781e-024 -6.173610891499e-024 -1.189657766898e-023 -4.386780397055e-024 -9.877717743436e-024 -6.215113193744e-024 -8.265741212201e-024 -4.049873927802e-024 -8.478691460422e-024 -8.129859628224e-025 -9.561464766502e-024 -4.807803285830e-024 -1.310980192915e-023 -1.349634678821e-023 -5.547075931992e-024 -1.205363988736e-023 -4.608193323939e-024 -5.798955400055e-025 0.000000000000e+000 -6.302623383459e-024 -7.697297427471e-024 -7.474920850439e-024 -3.015622583503e-024 -7.260249485602e-024 -8.639205403873e-024 -5.880727828118e-024 -2.178126992226e-025 -9.724867604243e-024 -1.344839204692e-023 -6.738439746362e-024 -1.630600457403e-024 -8.759366402605e-024 -5.836644928040e-024 -5.384454172818e-024 -5.885010949366e-024 -4.443138520894e-024 -8.583976278510e-024 
        </DataArray>
        <DataArray type="Float64" Name="Gas_Pressure" format="ascii">