<?xml version="1.0"?>
<VTKFile type="UnstructuredGrid" version="0.1" byte_order="LittleEndian">
  <UnstructuredGrid>
    <Piece NumberOfPoints="206" NumberOfCells="326">
      <Points>
        <DataArray type="Float64" NumberOfComponents="3" format="ascii">
          1.897435897436e+002 0.000000000000e+000 0.000000000000e+000
          1.931791020913e+002 4.394475469951e+000 0.000000000000e+000
          1.948717948718e+002 0.000000000000e+000 0.000000000000e+000
          5.880459463038e+000 1.099154902703e+001 0.000000000000e+000
          0.000000000000e+000 6.666666666655e+000 0.000000000000e+000
          0.000000000000e+000 1.333333333332e+001 0.000000000000e+000
          2.022497621136e+001 4.353446977749e+000 0.000000000000e+000
          2.051282051291e+001 0.000000000000e+000 0.000000000000e+000
          1.538461538468e+001 0.000000000000e+000 0.000000000000e+000
          1.711973192023e+001 9.822643375701e+000 0.000000000000e+000
          2.235754985755e+001 9.965277777778e+000 0.000000000000e+000
          1.342973104686e+001 5.024912353671e+000 0.000000000000e+000
          2.051282051273e+001 2.000000000000e+001 0.000000000000e+000
          1.990430525733e+001 1.515950912857e+001 0.000000000000e+000
          1.538461538455e+001 2.000000000000e+001 0.000000000000e+000
          1.275415082211e+002 1.500000000000e+001 0.000000000000e+000
          1.305226984145e+002 1.000000000000e+001 0.000000000000e+000
          1.266144349478e+002 1.000000000000e+001 0.000000000000e+000
          1.320283396971e+002 1.500000000000e+001 0.000000000000e+000
          1.275415082214e+002 5.000000000000e+000 0.000000000000e+000
          1.320283396974e+002 5.000000000000e+000 0.000000000000e+000
          2.662324775127e+001 5.694754464286e+000 0.000000000000e+000
          2.617521367521e+001 1.000000000000e+001 0.000000000000e+000
          2.532894973587e+001 1.397776144540e+001 0.000000000000e+000
          1.184289081109e+002 1.400000000000e+001 0.000000000000e+000
          1.217390520306e+002 1.000000000000e+001 0.000000000000e+000
          1.150696490874e+002 1.000602607727e+001 0.000000000000e+000
          1.222794923522e+002 1.500000000000e+001 0.000000000000e+000
          1.184289081111e+002 6.000000000000e+000 0.000000000000e+000
          1.222794923525e+002 5.000000000000e+000 0.000000000000e+000
          1.647570346228e+002 1.499982920203e+001 0.000000000000e+000
          1.610766879766e+002 9.999898274740e+000 0.000000000000e+000
          1.584898332400e+002 1.571424274568e+001 0.000000000000e+000
          7.586604251621e+001 5.621173932933e+000 0.000000000000e+000
          8.021655268624e+001 1.019499276048e+001 0.000000000000e+000
          8.189146271784e+001 4.117034117006e+000 0.000000000000e+000
          7.588302713352e+001 1.447660101075e+001 0.000000000000e+000
          8.201035504047e+001 1.604351572524e+001 0.000000000000e+000
          1.647575611852e+002 4.999583052019e+000 0.000000000000e+000
          1.589293847822e+002 4.146609780286e+000 0.000000000000e+000
          1.641025641024e+002 2.000000000000e+001 0.000000000000e+000
          1.692307692306e+002 2.000000000000e+001 0.000000000000e+000
          1.660230030600e+002 1.000000000000e+001 0.000000000000e+000
          1.697917692894e+002 1.499909577546e+001 0.000000000000e+000
          1.641025641028e+002 0.000000000000e+000 0.000000000000e+000
          1.692307692309e+002 0.000000000000e+000 0.000000000000e+000
          1.697948641857e+002 4.997649016204e+000 0.000000000000e+000
          1.743589743588e+002 2.000000000000e+001 0.000000000000e+000
          1.710911944708e+002 1.000000000000e+001 0.000000000000e+000
          1.749412615107e+002 1.499457465278e+001 0.000000000000e+000
          1.743589743591e+002 0.000000000000e+000 0.000000000000e+000
          1.749598308881e+002 4.985894097222e+000 0.000000000000e+000
          1.794871794871e+002 2.000000000000e+001 0.000000000000e+000
          1.769615825547e+002 9.964192708333e+000 0.000000000000e+000
          1.806150388551e+002 1.469347696151e+001 0.000000000000e+000
          1.794871794873e+002 0.000000000000e+000 0.000000000000e+000
          1.803838168879e+002 4.953657234265e+000 0.000000000000e+000
          1.846153846153e+002 2.000000000000e+001 0.000000000000e+000
          1.846153846155e+002 0.000000000000e+000 0.000000000000e+000
          1.858160403609e+002 4.891281862002e+000 0.000000000000e+000
          1.487179487182e+002 0.000000000000e+000 0.000000000000e+000
          1.505413635482e+002 5.088785165962e+000 0.000000000000e+000
          1.538461538464e+002 0.000000000000e+000 0.000000000000e+000
          5.128205128183e+001 2.000000000000e+001 0.000000000000e+000
          4.937524205543e+001 1.478507223003e+001 0.000000000000e+000
          4.615384615364e+001 2.000000000000e+001 0.000000000000e+000
          4.335527308620e+001 1.560308717176e+001 0.000000000000e+000
          4.102564102546e+001 2.000000000000e+001 0.000000000000e+000
          4.429011235569e+001 1.011123788964e+001 0.000000000000e+000
          3.589743589728e+001 2.000000000000e+001 0.000000000000e+000
          3.424338337179e+001 1.480928422469e+001 0.000000000000e+000
          3.076923076909e+001 2.000000000000e+001 0.000000000000e+000
          3.005689385761e+001 1.060364436599e+001 0.000000000000e+000
          6.153846153820e+001 2.000000000000e+001 0.000000000000e+000
          5.861144803786e+001 1.567337793620e+001 0.000000000000e+000
          5.641025641001e+001 2.000000000000e+001 0.000000000000e+000
          6.364098538444e+001 1.500000000000e+001 0.000000000000e+000
          5.989457932650e+001 1.030421617259e+001 0.000000000000e+000
          6.666666666639e+001 2.000000000000e+001 0.000000000000e+000
          6.863961921157e+001 1.499549437831e+001 0.000000000000e+000
          6.567188823475e+001 9.930555555556e+000 0.000000000000e+000
          8.717948717914e+001 2.000000000000e+001 0.000000000000e+000
          8.205128205096e+001 2.000000000000e+001 0.000000000000e+000
          8.825660559227e+001 1.457690124438e+001 0.000000000000e+000
          9.230769230733e+001 2.000000000000e+001 0.000000000000e+000
          8.616129659787e+001 8.733480538898e+000 0.000000000000e+000
          9.150074733547e+001 1.030748155382e+001 0.000000000000e+000
          1.384615384618e+002 0.000000000000e+000 0.000000000000e+000
          1.415932379237e+002 4.335026874129e+000 0.000000000000e+000
          1.435897435900e+002 0.000000000000e+000 0.000000000000e+000
          1.370080938287e+002 5.069444256391e+000 0.000000000000e+000
          1.404454238813e+002 9.718036725159e+000 0.000000000000e+000
          1.333333333336e+002 0.000000000000e+000 0.000000000000e+000
          1.076923076927e+002 0.000000000000e+000 0.000000000000e+000
          1.108991862601e+002 4.857696974887e+000 0.000000000000e+000
          1.128205128209e+002 0.000000000000e+000 0.000000000000e+000
          1.230769230773e+002 0.000000000000e+000 0.000000000000e+000
          1.282051282055e+002 0.000000000000e+000 0.000000000000e+000
          1.421648412768e+002 1.518915604417e+001 0.000000000000e+000
          1.384615384612e+002 2.000000000000e+001 0.000000000000e+000
          1.435897435894e+002 2.000000000000e+001 0.000000000000e+000
          1.370080938284e+002 1.506944425639e+001 0.000000000000e+000
          1.333333333330e+002 2.000000000000e+001 0.000000000000e+000
          1.230769230766e+002 2.000000000000e+001 0.000000000000e+000
          1.282051282048e+002 2.000000000000e+001 0.000000000000e+000
          1.106262295343e+002 1.449114286029e+001 0.000000000000e+000
          1.076923076919e+002 2.000000000000e+001 0.000000000000e+000
          1.128205128202e+002 2.000000000000e+001 0.000000000000e+000
          1.060408540078e+002 1.575486111111e+001 0.000000000000e+000
          5.803874767782e+001 4.824157678094e+000 0.000000000000e+000
          6.153846153872e+001 0.000000000000e+000 0.000000000000e+000
          5.641025641050e+001 0.000000000000e+000 0.000000000000e+000
          6.364098538470e+001 5.000000000000e+000 0.000000000000e+000
          6.666666666694e+001 0.000000000000e+000 0.000000000000e+000
          6.863961921185e+001 4.974991732804e+000 0.000000000000e+000
          9.032615013277e+001 4.937074209742e+000 0.000000000000e+000
          9.230769230805e+001 0.000000000000e+000 0.000000000000e+000
          8.717948717983e+001 0.000000000000e+000 0.000000000000e+000
          1.524809577360e+002 1.505950683102e+001 0.000000000000e+000
          1.487179487177e+002 2.000000000000e+001 0.000000000000e+000
          1.538461538459e+002 2.000000000000e+001 0.000000000000e+000
          1.472187406962e+002 1.523528621385e+001 0.000000000000e+000
          4.767577943456e+001 4.990079365079e+000 0.000000000000e+000
          5.128205128227e+001 0.000000000000e+000 0.000000000000e+000
          4.615384615405e+001 0.000000000000e+000 0.000000000000e+000
          5.289188460113e+001 4.768994659147e+000 0.000000000000e+000
          4.250523169876e+001 4.799709939732e+000 0.000000000000e+000
          4.102564102582e+001 0.000000000000e+000 0.000000000000e+000
          3.076923076937e+001 0.000000000000e+000 0.000000000000e+000
          2.564102564114e+001 0.000000000000e+000 0.000000000000e+000
          3.231012230340e+001 5.174437830688e+000 0.000000000000e+000
          3.589743589759e+001 0.000000000000e+000 0.000000000000e+000
          3.747197445908e+001 4.807502868680e+000 0.000000000000e+000
          1.589743589741e+002 2.000000000000e+001 0.000000000000e+000
          1.551353134763e+002 9.374350718944e+000 0.000000000000e+000
          7.179487179516e+001 0.000000000000e+000 0.000000000000e+000
          7.179487179458e+001 2.000000000000e+001 0.000000000000e+000
          1.179487179484e+002 2.000000000000e+001 0.000000000000e+000
          1.179487179491e+002 0.000000000000e+000 0.000000000000e+000
[...]
      <PointData Scalars="MEAN_PRESSURE">
        <DataArray type="Float64" Name="MEAN_PRESSURE" format="ascii">
          1.009890011927e+006 1.006578656395e+006 1.004946312920e+006 1.151533571973e+006 1.152093309270e+006 1.152022042236e+006 1.146349746115e+006 1.146092499391e+006 1.148718044224e+006 1.147849283882e+006 1.145170331525e+006 1.149500350641e+006 1.145969367993e+006 1.146354475835e+006 1.148567828512e+006 1.068624553283e+006 1.065910001068e+006 1.069465802804e+006 1.064532904765e+006 1.068624508206e+006 1.064532806582e+006 1.143099623411e+006 1.143304912816e+006 1.143722891516e+006 1.076814705165e+006 1.073860985862e+006 1.079795569945e+006 1.073375807260e+006 1.076814669151e+006 1.073375780433e+006 1.033863426050e+006 1.037366066300e+006 1.039822447070e+006 1.112100577742e+006 1.108780807812e+006 1.107483987420e+006 1.112088356304e+006 1.107395771406e+006 1.033862742827e+006 1.039405001988e+006 1.034486673702e+006 1.029592929016e+006 1.032656119035e+006 1.029056518342e+006 1.034486436180e+006 1.029592796471e+006 1.029053459667e+006 1.024683474607e+006 1.027813396449e+006 1.024125071530e+006 1.024683385100e+006 1.024107166752e+006 1.019761359642e+006 1.022186810094e+006 1.018677430464e+006 1.019761320946e+006 1.018899523732e+006 1.014829335596e+006 1.014829399262e+006 1.013673592078e+006 1.049043843184e+006 1.047330372370e+006 1.044216441516e+006 1.129219849054e+006 1.130422519800e+006 1.132397583563e+006 1.134070821603e+006 1.135429056464e+006 1.133519462356e+006 1.138307781659e+006 1.139204330767e+006 1.141026445404e+006 1.141389548999e+006 1.122438459447e+006 1.124428888857e+006 1.125898413653e+006 1.120982429081e+006 1.123565710068e+006 1.118848334054e+006 1.117433383220e+006 1.119558040579e+006 1.103312764749e+006 1.107356478872e+006 1.102453636348e+006 1.099172578997e+006 1.104128578423e+006 1.099830416109e+006 1.058608081520e+006 1.055701882874e+006 1.053842599322e+006 1.059952266246e+006 1.056769824187e+006 1.063336091885e+006 1.086232870438e+006 1.083450805587e+006 1.081770832275e+006 1.072659445139e+006 1.068021324167e+006 1.055170476108e+006 1.058608333530e+006 1.053842780878e+006 1.059952491730e+006 1.063336189251e+006 1.072659473777e+006 1.068021381979e+006 1.083688633884e+006 1.086232754904e+006 1.081770456339e+006 1.087653426302e+006 1.124814691055e+006 1.122438532753e+006 1.125898256839e+006 1.120983271350e+006 1.118848649575e+006 1.117433563866e+006 1.100783036097e+006 1.099171774613e+006 1.103313252415e+006 1.045503963592e+006 1.049043874086e+006 1.044215328684e+006 1.050450158285e+006 1.131468520008e+006 1.129219569288e+006 1.132395823389e+006 1.128192476685e+006 1.134565649013e+006 1.135422927898e+006 1.141017226253e+006 1.143667176884e+006 1.140216846420e+006 1.138296753543e+006 1.137431471417e+006 1.039360934811e+006 1.042998623755e+006 1.115133279129e+006 1.115133187723e+006 1.077245710037e+006 1.077245712733e+006 1.150541663750e+006 1.151219444862e+006 1.016230633039e+006 1.011076915178e+006 1.006451849474e+006 1.079768538146e+006 1.079768648612e+006 1.012374546621e+006 1.097828914512e+006 1.097464922065e+006 1.094941695502e+006 1.094132460185e+006 1.090625956701e+006 1.094939902598e+006 1.093874135944e+006 1.090624191149e+006 1.107360148616e+006 1.111306499339e+006 1.111306396445e+006 1.039360909365e+006 1.009890040526e+006 1.151646110364e+006 1.005611691021e+006 1.000000000000e+006 1.090635601295e+006 1.092121117844e+006 1.129741553849e+006 1.095892033994e+006 1.062056653494e+006 1.088277562294e+006 1.048159647317e+006 1.138719734735e+006 1.092590502447e+006 1.097272590184e+006 1.087871939644e+006 1.004946191618e+006 1.000000000000e+006 1.115095261408e+006 1.000000000000e+006 1.114917565726e+006 1.114917506656e+006 1.149179401236e+006 1.103991900118e+006 1.084631930204e+006 1.150187480850e+006 1.150580292963e+006 1.051979127528e+006 1.136490232908e+006 1.127076566370e+006 1.136789140456e+006 1.051498756894e+006 1.127436339302e+006 1.144813937241e+006 1.143586920568e+006 1.052512058121e+006 1.126706318753e+006 1.136173960750e+006 1.105797962285e+006 1.150501725655e+006 1.151627297368e+006 1.151610976473e+006 1.112028317629e+006 1.043490229743e+006 1.141813965993e+006 1.152010062367e+006 1.151970227091e+006 1.000000000000e+006 
        </DataArray>
        <DataArray type="Float64" Name="TOTAL_MASS_DENSITY" format="ascii">
          1.068586412459e-004 7.052498557657e-005 5.313042484107e-005 2.305607679779e-002 2.446598380488e-002 2.445552884253e-002 1.813138316158e-002 1.804621463739e-002 2.024290692203e-002 1.960359353129e-002 1.724049146891e-002 2.093314572745e-002 1.795406485483e-002 1.829624866647e-002 2.025232995631e-002 1.507728491289e-003 1.380212470105e-003 1.549109459333e-003 1.319439871980e-003 1.507755632864e-003 1.319498849257e-003 1.594953868245e-002 1.609717111742e-002 1.632951196557e-002 1.961015857093e-003 1.783773775826e-003 2.150705571491e-003 1.756556649261e-003 1.961037376447e-003 1.756572832656e-003 4.390421248708e-004 5.054634618976e-004 5.555497867265e-004 5.812306224578e-003 5.252025996629e-003 5.047172439654e-003 5.809694556936e-003 5.030407262913e-003 4.391436334513e-004 5.470772301019e-004 4.506234183281e-004 3.661258407522e-004 4.177022306811e-004 3.575309646802e-004 4.507682518223e-004 3.662069219791e-004 3.575444327772e-004 2.912744167256e-004 3.380258851739e-004 2.833618011885e-004 2.913294243236e-004 2.831692759422e-004 2.242214168475e-004 2.564101400470e-004 2.103352604041e-004 2.242452823656e-004 2.132576547313e-004 1.632853051028e-004 1.632460012290e-004 1.496482921812e-004 7.797677828014e-004 7.335539931534e-004 6.548777456324e-004 9.927350687832e-003 1.031884929582e-002 1.101334490114e-002 1.164108000015e-002 1.218428679407e-002 1.142637501888e-002 1.344595252002e-002 1.387096090997e-002 1.480114859528e-002 1.499525941864e-002 8.001821189514e-003 8.519403911208e-003 8.924488848168e-003 7.645215537591e-003 8.287032827305e-003 7.154480899829e-003 6.847996454364e-003 7.311141208354e-003 4.444967563984e-003 5.029808428415e-003 4.327805140385e-003 3.916078117377e-003 4.553579157530e-003 3.995607771321e-003 1.084114680811e-003 9.826888856527e-004 9.219466113891e-004 1.133943817956e-003 1.018200909601e-003 1.268688977083e-003 2.631235822449e-003 2.412880118075e-003 2.289758735326e-003 1.716680071944e-003 1.478724567226e-003 9.647524699874e-004 1.083963156878e-003 9.218362954794e-004 1.133808550802e-003 1.268630226714e-003 1.716662633947e-003 1.478689690045e-003 2.430862099238e-003 2.631302868257e-003 2.289978217603e-003 2.750772565546e-003 8.622663289953e-003 8.001686222474e-003 8.924364770329e-003 7.644682573712e-003 7.154260757069e-003 6.847873489804e-003 4.114237087018e-003 3.916541803106e-003 4.444681312014e-003 6.866702471941e-004 7.797480556284e-004 6.555523492682e-004 8.192727906558e-004 1.068218532374e-002 9.927015050485e-003 1.101324021952e-002 9.603357229566e-003 1.183810502871e-002 1.218525212917e-002 1.479568246757e-002 1.621884829889e-002 1.438363395734e-002 1.344600632978e-002 1.304979492302e-002 5.470370158939e-004 6.260719855592e-004 6.379382390109e-003 6.379449230654e-003 1.985243394180e-003 1.985242474989e-003 2.188706407063e-002 2.259988432994e-002 1.800553051335e-004 1.201196349134e-004 6.923379153030e-005 2.151755629012e-003 2.151690132713e-003 1.345327038109e-004 3.758471658816e-003 3.717731193500e-003 3.439861295268e-003 3.357639192699e-003 3.013004782337e-003 3.440901912339e-003 3.328883729650e-003 3.014032953385e-003 5.027679093306e-003 5.668930513259e-003 5.668995078992e-003 5.470521524237e-004 1.068406437841e-004 2.324156902629e-002 6.020093277339e-005 1.000000000000e-006 3.016468924250e-003 3.156136546770e-003 1.009569201613e-002 3.542697666348e-003 1.215858755783e-003 2.801706929391e-003 7.556321368195e-004 1.364455902755e-002 3.202915251229e-003 3.696322273816e-003 2.768441719265e-003 5.320362685751e-005 1.000000000000e-006 6.367424263423e-003 1.000000000000e-006 6.337572596813e-003 6.337597332958e-003 2.073669668868e-002 4.538605525706e-003 2.504128596106e-003 2.156964655918e-002 2.197288062740e-002 8.639352522277e-004 1.262939363884e-002 9.263126149705e-003 1.276300086209e-002 8.503760433805e-004 9.374980362498e-003 1.704149575310e-002 1.626895187996e-002 8.806219252914e-004 9.158116264147e-003 1.250060452416e-002 4.797094908893e-003 2.189330464243e-002 2.322537658579e-002 2.323601218205e-002 5.803379828492e-003 6.388050621833e-004 1.523135272390e-002 2.445438741029e-002 2.444843550274e-002 1.000000000000e-006 
        </DataArray>
      </PointData>
      <CellData>
        <DataArray type="Float64" Name="Capillary_Pressure" format="ascii">
          -2.390316116194e-022 1.477791333143e+005 4.181865532927e+004 2.780896782146e+004 6.076897620976e+004 6.573523077461e+004 4.261551977390e+004 2.953014376136e+004 -1.348767765756e-022 -2.354220100139e-022 -2.916303055289e-023 -1.627383544759e-022 0.000000000000e+000 1.455626814604e+003 0.000000000000e+000 3.776836945403e+003 -3.337339158897e-023 -1.256665866808e-022 -2.447215741824e-022 -4.387881069595e-022 -2.826308420887e-022 -3.007960886997e-022 -6.887981236626e-022 -2.467996885324e-022 0.000000000000e+000 -1.032357039923e-022 -1.807553208954e-022 -1.073367132637e-022 0.000000000000e+000 -5.825461792815e-023 -1.655511868352e-022 -1.500682576481e-022 -1.861740103789e-022 0.000000000000e+000 0.000000000000e+000 -2.402081202098e-022 0.000000000000e+000 -3.068336676703e-022 -1.558350680793e-022 -1.859544388373e-023 -2.015705080417e-022 -1.417798933831e-022 0.000000000000e+000 -2.283926345802e-022 -1.072832722103e-022 -1.057102823735e-022 -8.809103155931e-023 -1.004995218878e-022 -2.801873795377e-023 -1.900732949689e-022 -1.951044165739e-022 -3.008498829918e-022 -3.230703233991e-022 -2.458866596914e-020 -1.511169452620e-021 -1.910899021365e-020 -5.767568132113e-021 -9.735936412756e-020 -3.329271346287e-022 -8.588440058537e-023 0.000000000000e+000 -1.576898647441e-022 0.000000000000e+000 -4.320137836830e-022 -6.980789610228e-022 -2.141230083029e-022 -8.985160746305e-023 -1.237273752152e-022 -6.850057788100e-022 -2.777574309009e-022 -3.548995786662e-022 -2.444681259744e-022 -9.687566427477e-023 -1.102594765915e-022 -1.831613640515e-022 -1.800694615493e-022 -2.867143088825e-023 -4.993822971859e-022 -4.296118518630e-022 -5.909418080655e-022 -2.445023056857e-022 -1.443482066605e-022 0.000000000000e+000 -3.422467797745e-022 -3.466685621757e-022 -1.229209554603e-022 -6.625979370887e-023 -1.093006566459e-022 -1.648125714786e-022 -1.469327149070e-022 -1.082378290938e-021 -2.362030523529e-023 -5.986960154403e-022 -2.164902652019e-022 0.000000000000e+000 -2.554801033585e-022 -7.241350692940e-023 -8.551922158230e-021 -3.529347249092e-021 -1.187431084645e-020 -1.591416393504e-021 -1.036607281749e-020 -4.089281479287e-019 -6.834893320810e-020 -2.103979474256e-019 -5.069909260519e-020 -9.112152136423e-020 0.000000000000e+000 -3.655633686602e-022 -1.292423379878e-022 -3.190968365673e-022 -3.635551553247e-022 -2.844753719634e-022 -3.355598084577e-022 0.000000000000e+000 -1.864398712647e-022 0.000000000000e+000 -4.531775553111e-022 -3.552299988446e-022 -2.165917845929e-021 -1.164581770007e-020 -2.279828502013e-022 -4.981286457653e-022 -2.562579999725e-023 -2.548936260792e-022 0.000000000000e+000 -1.895165355725e-023 0.000000000000e+000 0.000000000000e+000 -3.512937798586e-022 0.000000000000e+000 9.322050069275e+004 1.086865330532e+005 -6.878025748973e-023 -5.212245949018e-023 -2.244375640887e-022 -7.806613175232e-023 -1.712834284804e-022 0.000000000000e+000 -1.182622656316e-022 -3.377596876549e-022 -1.769102400486e-022 -1.269713549901e-022 -4.597582648439e-022 -1.311646142562e-024 0.000000000000e+000 -3.251037671110e-022 -2.644871047781e-022 -7.249645726706e-023 0.000000000000e+000 -4.145894765776e-022 -8.024550668580e-023 -5.869850601493e-022 -2.123292110256e-022 -2.442062728457e-022 -3.390659063214e-022 -3.161092528293e-022 -2.994464922362e-022 -4.056683572811e-022 -1.509461043205e-023 -8.118448418005e-023 -3.137206658321e-022 -1.634333384268e-022 -1.146930894165e-022 -1.639095670575e-022 -1.956007065694e-022 -3.456082542606e-022 -2.689621810146e-022 7.129833264908e+003 -2.038279638988e-019 1.371731017934e+005 -1.292093331841e-022 1.230303667915e+005 -2.083734715484e-022 -3.425642897095e-022 -1.503468956573e-022 -2.930178186513e-021 -6.984722307634e-021 -2.284083690513e-022 -2.857739030430e-022 -5.370092779914e-022 -1.287736577093e-022 -1.963538093399e-022 -4.206542917117e-022 -4.407125632107e-022 -1.219343066207e-022 -7.872068574667e-021 -1.492343851987e-019 -5.703452957418e-022 -7.032756604968e-023 -1.347659286707e-022 0.000000000000e+000 -7.860743764313e-022 -1.189024226780e-025 0.000000000000e+000 -1.873575248705e-022 -1.391686960746e-022 -4.581453373584e-022 -5.225961134734e-023 -2.587937987865e-021 -1.213050909192e-019 -1.377740868217e-022 -8.249182734359e-022 -6.123162712074e-022 -7.308239908648e-023 -1.138069056839e-022 -4.067773508286e-022 -1.660177088899e-022 -4.530982104929e-022 -6.640557018813e-023 -2.026056127202e-022 0.000000000000e+000 -1.000861412279e-022 -1.352887817698e-022 -6.424969552602e-023 -2.227830777483e-023 -1.846653937163e-022 -4.161300712981e-023 -7.656263030031e-023 -2.408266537912e-022 -2.313870734558e-022 -9.300011656577e-023 -1.592695248998e-022 -4.756449795710e-022 -7.318677718993e-022 0.000000000000e+000 -3.295738735951e-022 -3.598670511444e-022 -1.803210241456e-023 -5.406793628809e-022 0.000000000000e+000 -3.014226627557e-022 -4.829418036807e-022 6.574206885581e+004 6.068625684337e+004 -6.142822109940e-022 -6.677011245473e-023 -3.391322286844e-022 -2.894633033935e-022 -1.279277298656e-022 0.000000000000e+000 1.199632136506e+005 1.161124777861e+005 1.066614037015e+005 -1.150125185796e-022 -1.625862153784e-021 8.660417839295e+004 1.013736330622e+005 8.524731739035e+004 -7.841294315362e-023 0.000000000000e+000 -4.571199630811e-023 -8.149194742474e-023 -3.092301003297e-022 -2.821810431293e-021 -1.110545349917e-022 -3.964820302009e-022 -1.990686466448e-022 -1.683275845665e-021 -8.924367585067e-021 -1.052706778969e-022 -3.418382860431e-022 -3.280078972749e-022 -8.703538186890e-022 -5.369406535522e-024 3.364936659783e+003 -7.298466354100e-022 1.111543411354e+004 -2.344117716099e-022 -1.905560155194e-022 -1.882224279241e-021 -2.176039031760e-023 -1.612419932798e-020 -7.151539852850e-022 -2.955750938001e-022 -1.696819420142e-022 -1.497853791483e-022 -1.990617173795e-022 1.267999399112e+005 9.202540210489e+004 1.034763418994e+005 1.191586494059e+005 1.262040900510e+005 -4.109094277747e-021 -4.317548126606e-021 -6.118027788106e-021 -6.979503536944e-023 -1.372193888749e-022 -9.757043217080e-023 -3.851967508037e-022 -2.818588151803e-022 -1.351894014924e-022 -3.602337121053e-021 -9.476061338257e-021 -2.985712847727e-021 -2.150472640980e-022 0.000000000000e+000 -1.041217842650e-022 -7.764368330922e-023 -3.761595002802e-022 -6.396749468780e-022 -1.977549060620e-022 0.000000000000e+000 -8.074733749215e-023 -1.286701727325e-022 -2.510768577631e-022 -3.029396856938e-022 -8.143865350598e-023 -3.625446653668e-022 -3.155045411685e-021 -1.267411293005e-020 -1.170752206706e-022 -2.485955740512e-022 -1.433085648285e-023 -8.138425900962e-023 -2.489173038235e-022 -3.245846452034e-022 -3.644482465573e-022 -1.677844029703e-022 1.486797980357e+005 1.407436885316e+005 1.417753026136e+005 1.487920384951e+005 1.382480503070e+005 -1.947659133775e-022 -1.632246181670e-022 
        </DataArray>
        <DataArray type="Float64" Name="Gas_Pressure" format="ascii">