<?xml version="1.0"?>
<VTKFile type="UnstructuredGrid" version="0.1" byte_order="LittleEndian">
  <UnstructuredGrid>
    <Piece NumberOfPoints="206" NumberOfCells="326">
      <Points>
        <DataArray type="Float64" NumberOfComponents="3" format="ascii">
          1.897435897436e+002 0.000000000000e+000 0.000000000000e+000
          1.931791020913e+002 4.394475469951e+000 0.000000000000e+000
          1.948717948718e+002 0.000000000000e+000 0.000000000000e+000
          5.880459463038e+000 1.099154902703e+001 0.000000000000e+000
          0.000000000000e+000 6.666666666655e+000 0.000000000000e+000
          0.000000000000e+000 1.333333333332e+001 0.000000000000e+000
          2.022497621136e+001 4.353446977749e+000 0.000000000000e+000
          2.051282051291e+001 0.000000000000e+000 0.000000000000e+000
          1.538461538468e+001 0.000000000000e+000 0.000000000000e+000
          1.711973192023e+001 9.822643375701e+000 0.000000000000e+000
          2.235754985755e+001 9.965277777778e+000 0.000000000000e+000
          1.342973104686e+001 5.024912353671e+000 0.000000000000e+000
          2.051282051273e+001 2.000000000000e+001 0.000000000000e+000
          1.990430525733e+001 1.515950912857e+001 0.000000000000e+000
          1.538461538455e+001 2.000000000000e+001 0.000000000000e+000
          1.275415082211e+002 1.500000000000e+001 0.000000000000e+000
          1.305226984145e+002 1.000000000000e+001 0.000000000000e+000
          1.266144349478e+002 1.000000000000e+001 0.000000000000e+000
          1.320283396971e+002 1.500000000000e+001 0.000000000000e+000
          1.275415082214e+002 5.000000000000e+000 0.000000000000e+000
          1.320283396974e+002 5.000000000000e+000 0.000000000000e+000
          2.662324775127e+001 5.694754464286e+000 0.000000000000e+000
          2.617521367521e+001 1.000000000000e+001 0.000000000000e+000
          2.532894973587e+001 1.397776144540e+001 0.000000000000e+000
          1.184289081109e+002 1.400000000000e+001 0.000000000000e+000
          1.217390520306e+002 1.000000000000e+001 0.000000000000e+000
          1.150696490874e+002 1.000602607727e+001 0.000000000000e+000
          1.222794923522e+002 1.500000000000e+001 0.000000000000e+000
          1.184289081111e+002 6.000000000000e+000 0.000000000000e+000
          1.222794923525e+002 5.000000000000e+000 0.000000000000e+000
          1.647570346228e+002 1.499982920203e+001 0.000000000000e+000
          1.610766879766e+002 9.999898274740e+000 0.000000000000e+000
          1.584898332400e+002 1.571424274568e+001 0.000000000000e+000
          7.586604251621e+001 5.621173932933e+000 0.000000000000e+000
          8.021655268624e+001 1.019499276048e+001 0.000000000000e+000
          8.189146271784e+001 4.117034117006e+000 0.000000000000e+000
          7.588302713352e+001 1.447660101075e+001 0.000000000000e+000
          8.201035504047e+001 1.604351572524e+001 0.000000000000e+000
          1.647575611852e+002 4.999583052019e+000 0.000000000000e+000
          1.589293847822e+002 4.146609780286e+000 0.000000000000e+000
          1.641025641024e+002 2.000000000000e+001 0.000000000000e+000
          1.692307692306e+002 2.000000000000e+001 0.000000000000e+000
          1.660230030600e+002 1.000000000000e+001 0.000000000000e+000
          1.697917692894e+002 1.499909577546e+001 0.000000000000e+000
          1.641025641028e+002 0.000000000000e+000 0.000000000000e+000
          1.692307692309e+002 0.000000000000e+000 0.000000000000e+000
          1.697948641857e+002 4.997649016204e+000 0.000000000000e+000
          1.743589743588e+002 2.000000000000e+001 0.000000000000e+000
          1.710911944708e+002 1.000000000000e+001 0.000000000000e+000
          1.749412615107e+002 1.499457465278e+001 0.000000000000e+000
          1.743589743591e+002 0.000000000000e+000 0.000000000000e+000
          1.749598308881e+002 4.985894097222e+000 0.000000000000e+000
          1.794871794871e+002 2.000000000000e+001 0.000000000000e+000
          1.769615825547e+002 9.964192708333e+000 0.000000000000e+000
          1.806150388551e+002 1.469347696151e+001 0.000000000000e+000
          1.794871794873e+002 0.000000000000e+000 0.000000000000e+000
          1.803838168879e+002 4.953657234265e+000 0.000000000000e+000
          1.846153846153e+002 2.000000000000e+001 0.000000000000e+000
          1.846153846155e+002 0.000000000000e+000 0.000000000000e+000
          1.858160403609e+002 4.891281862002e+000 0.000000000000e+000
          1.487179487182e+002 0.000000000000e+000 0.000000000000e+000
          1.505413635482e+002 5.088785165962e+000 0.000000000000e+000
          1.538461538464e+002 0.000000000000e+000 0.000000000000e+000
          5.128205128183e+001 2.000000000000e+001 0.000000000000e+000
          4.937524205543e+001 1.478507223003e+001 0.000000000000e+000
          4.615384615364e+001 2.000000000000e+001 0.000000000000e+000
          4.335527308620e+001 1.560308717176e+001 0.000000000000e+000
          4.102564102546e+001 2.000000000000e+001 0.000000000000e+000
          4.429011235569e+001 1.011123788964e+001 0.000000000000e+000
          3.589743589728e+001 2.000000000000e+001 0.000000000000e+000
          3.424338337179e+001 1.480928422469e+001 0.000000000000e+000
          3.076923076909e+001 2.000000000000e+001 0.000000000000e+000
          3.005689385761e+001 1.060364436599e+001 0.000000000000e+000
          6.153846153820e+001 2.000000000000e+001 0.000000000000e+000
          5.861144803786e+001 1.567337793620e+001 0.000000000000e+000
          5.641025641001e+001 2.000000000000e+001 0.000000000000e+000
          6.364098538444e+001 1.500000000000e+001 0.000000000000e+000
          5.989457932650e+001 1.030421617259e+001 0.000000000000e+000
          6.666666666639e+001 2.000000000000e+001 0.000000000000e+000
          6.863961921157e+001 1.499549437831e+001 0.000000000000e+000
          6.567188823475e+001 9.930555555556e+000 0.000000000000e+000
          8.717948717914e+001 2.000000000000e+001 0.000000000000e+000
          8.205128205096e+001 2.000000000000e+001 0.000000000000e+000
          8.825660559227e+001 1.457690124438e+001 0.000000000000e+000
          9.230769230733e+001 2.000000000000e+001 0.000000000000e+000
          8.616129659787e+001 8.733480538898e+000 0.000000000000e+000
          9.150074733547e+001 1.030748155382e+001 0.000000000000e+000
          1.384615384618e+002 0.000000000000e+000 0.000000000000e+000
          1.415932379237e+002 4.335026874129e+000 0.000000000000e+000
          1.435897435900e+002 0.000000000000e+000 0.000000000000e+000
          1.370080938287e+002 5.069444256391e+000 0.000000000000e+000
          1.404454238813e+002 9.718036725159e+000 0.000000000000e+000
          1.333333333336e+002 0.000000000000e+000 0.000000000000e+000
          1.076923076927e+002 0.000000000000e+000 0.000000000000e+000
          1.108991862601e+002 4.857696974887e+000 0.000000000000e+000
          1.128205128209e+002 0.000000000000e+000 0.000000000000e+000
          1.230769230773e+002 0.000000000000e+000 0.000000000000e+000
          1.282051282055e+002 0.000000000000e+000 0.000000000000e+000
          1.421648412768e+002 1.518915604417e+001 0.000000000000e+000
          1.384615384612e+002 2.000000000000e+001 0.000000000000e+000
          1.435897435894e+002 2.000000000000e+001 0.000000000000e+000
          1.370080938284e+002 1.506944425639e+001 0.000000000000e+000
          1.333333333330e+002 2.000000000000e+001 0.000000000000e+000
          1.230769230766e+002 2.000000000000e+001 0.000000000000e+000
          1.282051282048e+002 2.000000000000e+001 0.000000000000e+000
          1.106262295343e+002 1.449114286029e+001 0.000000000000e+000
          1.076923076919e+002 2.000000000000e+001 0.000000000000e+000
          1.128205128202e+002 2.000000000000e+001 0.000000000000e+000
          1.060408540078e+002 1.575486111111e+001 0.000000000000e+000
          5.803874767782e+001 4.824157678094e+000 0.000000000000e+000
          6.153846153872e+001 0.000000000000e+000 0.000000000000e+000
          5.641025641050e+001 0.000000000000e+000 0.000000000000e+000
          6.364098538470e+001 5.000000000000e+000 0.000000000000e+000
          6.666666666694e+001 0.000000000000e+000 0.000000000000e+000
          6.863961921185e+001 4.974991732804e+000 0.000000000000e+000
          9.032615013277e+001 4.937074209742e+000 0.000000000000e+000
          9.230769230805e+001 0.000000000000e+000 0.000000000000e+000
          8.717948717983e+001 0.000000000000e+000 0.000000000000e+000
          1.524809577360e+002 1.505950683102e+001 0.000000000000e+000
          1.487179487177e+002 2.000000000000e+001 0.000000000000e+000
          1.538461538459e+002 2.000000000000e+001 0.000000000000e+000
          1.472187406962e+002 1.523528621385e+001 0.000000000000e+000
          4.767577943456e+001 4.990079365079e+000 0.000000000000e+000
          5.128205128227e+001 0.000000000000e+000 0.000000000000e+000
          4.615384615405e+001 0.000000000000e+000 0.000000000000e+000
          5.289188460113e+001 4.768994659147e+000 0.000000000000e+000
          4.250523169876e+001 4.799709939732e+000 0.000000000000e+000
          4.102564102582e+001 0.000000000000e+000 0.000000000000e+000
          3.076923076937e+001 0.000000000000e+000 0.000000000000e+000
          2.564102564114e+001 0.000000000000e+000 0.000000000000e+000
          3.231012230340e+001 5.174437830688e+000 0.000000000000e+000
          3.589743589759e+001 0.000000000000e+000 0.000000000000e+000
          3.747197445908e+001 4.807502868680e+000 0.000000000000e+000
          1.589743589741e+002 2.000000000000e+001 0.000000000000e+000
          1.551353134763e+002 9.374350718944e+000 0.000000000000e+000
          7.179487179516e+001 0.000000000000e+000 0.000000000000e+000
          7.179487179458e+001 2.000000000000e+001 0.000000000000e+000
          1.179487179484e+002 2.000000000000e+001 0.000000000000e+000
          1.179487179491e+002 0.000000000000e+000 0.000000000000e+000
[...]
      <PointData Scalars="MEAN_PRESSURE">
        <DataArray type="Float64" Name="MEAN_PRESSURE" format="ascii">
          1.009469907243e+006 1.006298897657e+006 1.004735918092e+006 1.145768366659e+006 1.146447244626e+006 1.146414096244e+006 1.140738161698e+006 1.140610373783e+006 1.143060014179e+006 1.142017968117e+006 1.139814614749e+006 1.143823451052e+006 1.140501574163e+006 1.140778110222e+006 1.142662979101e+006 1.065917939162e+006 1.063295961547e+006 1.066730797950e+006 1.061966418674e+006 1.065917902115e+006 1.061966337036e+006 1.137911325960e+006 1.138107839330e+006 1.138491976082e+006 1.073838137891e+006 1.070980083560e+006 1.076723687032e+006 1.070510812837e+006 1.073838107824e+006 1.070510791164e+006 1.032449838600e+006 1.035812732597e+006 1.038172078093e+006 1.108078850597e+006 1.104854378616e+006 1.103594623226e+006 1.108066964939e+006 1.103508922989e+006 1.032449213579e+006 1.037771131568e+006 1.033048157911e+006 1.028352040150e+006 1.031291136879e+006 1.027837483233e+006 1.033047970330e+006 1.028351936596e+006 1.027834567168e+006 1.023643816329e+006 1.026645141835e+006 1.023108483394e+006 1.023643747617e+006 1.023091337728e+006 1.018925962258e+006 1.021250480624e+006 1.017887297228e+006 1.018925933005e+006 1.018100140840e+006 1.014200655061e+006 1.014200702641e+006 1.013093566503e+006 1.047038450770e+006 1.045389848585e+006 1.042395053974e+006 1.124663393379e+006 1.125823575523e+006 1.127724128814e+006 1.129332213506e+006 1.130632683796e+006 1.128805457765e+006 1.133376122756e+006 1.134228813837e+006 1.135948595726e+006 1.136299707946e+006 1.118107264407e+006 1.120034209417e+006 1.121455604980e+006 1.116696691753e+006 1.119199100991e+006 1.114627789827e+006 1.113255337690e+006 1.115316130710e+006 1.099542236907e+006 1.103470727759e+006 1.098707574308e+006 1.095520409676e+006 1.100334781592e+006 1.096159367045e+006 1.056250662190e+006 1.053449596992e+006 1.051658393236e+006 1.057546787898e+006 1.054478566429e+006 1.060811271177e+006 1.082961795934e+006 1.080264941245e+006 1.078637116362e+006 1.069818003526e+006 1.065335162184e+006 1.052937531708e+006 1.056250871350e+006 1.051658538620e+006 1.057546976503e+006 1.060811350886e+006 1.069818025763e+006 1.065335209369e+006 1.080495424479e+006 1.082961687141e+006 1.078636768943e+006 1.084339427956e+006 1.120407964728e+006 1.118107642745e+006 1.121456205969e+006 1.116697687962e+006 1.114628230552e+006 1.113255583651e+006 1.097084707156e+006 1.095519606196e+006 1.099542677436e+006 1.043633137319e+006 1.047038471405e+006 1.042394156088e+006 1.048391888368e+006 1.126833265945e+006 1.124665050961e+006 1.127726862430e+006 1.123673231849e+006 1.129812264529e+006 1.130635628818e+006 1.135952119054e+006 1.138345948671e+006 1.135199481514e+006 1.133380883991e+006 1.132555546790e+006 1.037729038415e+006 1.041224308573e+006 1.111023347026e+006 1.111023204048e+006 1.074254990490e+006 1.074254997218e+006 1.144792853805e+006 1.145320293613e+006 1.015543036715e+006 1.010606587793e+006 1.006177499810e+006 1.076697790102e+006 1.076697885339e+006 1.011849282544e+006 1.094215393065e+006 1.093861903376e+006 1.091411785458e+006 1.090626230943e+006 1.087222906717e+006 1.091410069909e+006 1.090375337484e+006 1.087221247364e+006 1.103474297469e+006 1.107307764955e+006 1.107307644341e+006 1.037729016820e+006 1.009469928601e+006 1.145863780715e+006 1.005373015146e+006 1.000000000000e+006 1.087232402181e+006 1.088673886137e+006 1.125167817392e+006 1.092334529907e+006 1.059576636847e+006 1.084944607876e+006 1.046187661112e+006 1.133777009192e+006 1.089129505705e+006 1.093675128384e+006 1.084551286756e+006 1.004735828774e+006 1.000000000000e+006 1.110986548222e+006 1.000000000000e+006 1.110813878973e+006 1.110813860588e+006 1.143080664754e+006 1.100202014186e+006 1.081409776411e+006 1.144356484034e+006 1.145234417298e+006 1.049863753812e+006 1.131651151331e+006 1.122594773403e+006 1.131932507526e+006 1.049401425631e+006 1.122941825918e+006 1.139433937938e+006 1.138335657346e+006 1.050377021681e+006 1.122237062135e+006 1.131351731551e+006 1.101956612491e+006 1.145055679307e+006 1.145940806194e+006 1.146120694796e+006 1.108008598894e+006 1.041697189920e+006 1.136696440758e+006 1.146368247894e+006 1.146417197239e+006 1.000000000000e+006 
        </DataArray>
        <DataArray type="Float64" Name="TOTAL_MASS_DENSITY" format="ascii">
          7.141290539380e-005 4.710504473535e-005 3.554691539359e-005 2.194467605288e-002 2.352059521268e-002 2.350627504659e-002 1.650468388145e-002 1.643771156448e-002 1.856262064234e-002 1.768311597804e-002 1.593199437507e-002 1.941955560084e-002 1.643771767066e-002 1.666177564425e-002 1.851025862459e-002 1.150139974225e-003 1.044868811291e-003 1.184449880509e-003 9.950252016894e-004 1.150163885534e-003 9.950775639334e-004 1.465691493849e-002 1.479935621239e-002 1.502836411974e-002 1.530523397790e-003 1.380651570872e-003 1.691789488638e-003 1.357799390544e-003 1.530542578669e-003 1.357813493589e-003 3.047995671422e-004 3.539363008329e-004 3.913830929833e-004 4.968798194500e-003 4.453903060014e-003 4.266460992636e-003 4.966370851179e-003 4.250957020372e-003 3.048878404862e-004 3.850539930400e-004 3.133389588796e-004 2.517252156231e-004 2.891843117739e-004 2.455367867795e-004 3.134632547401e-004 2.517943279226e-004 2.455544186098e-004 1.982628542827e-004 2.315383481492e-004 1.926870141779e-004 1.983092349331e-004 1.925592816371e-004 1.513382968953e-004 1.737536799480e-004 1.417372054838e-004 1.513582346176e-004 1.437686667444e-004 1.095076626795e-004 1.094750503059e-004 1.002367577130e-004 5.631378716636e-004 5.272742346820e-004 4.667211155964e-004 8.831356313313e-003 9.204035015830e-003 9.867669117772e-003 1.046900546986e-002 1.099106224503e-002 1.026252935469e-002 1.220782292437e-002 1.261965814574e-002 1.352035104874e-002 1.371418984082e-002 7.009381961681e-003 7.497005519826e-003 7.879746699455e-003 6.674427836437e-003 7.277688268372e-003 6.215029798847e-003 5.929061607020e-003 6.361349567693e-003 3.718870282623e-003 4.250744063542e-003 3.612776101770e-003 3.242187808615e-003 3.817057027175e-003 3.313571386997e-003 8.041033770805e-004 7.229704169448e-004 6.747456996952e-004 8.442233192013e-004 7.512186182340e-004 9.535729630847e-004 2.106306630518e-003 1.917123133260e-003 1.811102060591e-003 1.324331310139e-003 1.126148694249e-003 7.086775452623e-004 8.039690169304e-004 6.746501868006e-004 8.441027392079e-004 9.535213474288e-004 1.324316500385e-003 1.126118111259e-003 1.932654460299e-003 2.106371616530e-003 1.811311987752e-003 2.210495914804e-003 7.594353487293e-003 7.009195269525e-003 7.879484879208e-003 6.673866074496e-003 6.214787692004e-003 5.928926690039e-003 3.420288439083e-003 3.242655587730e-003 3.718600488524e-003 4.911181961354e-004 5.631225571704e-004 4.673081324636e-004 5.939479289833e-004 9.550452531494e-003 8.830633712745e-003 9.866667750275e-003 8.523070962481e-003 1.065716778680e-002 1.099059450301e-002 1.352175122770e-002 1.493666465498e-002 1.311671721441e-002 1.220741737138e-002 1.182396215827e-002 3.851154049745e-004 4.447410980691e-004 5.493336251985e-003 5.493412473557e-003 1.550881518819e-003 1.550878786630e-003 2.053246268561e-002 2.141423850715e-002 1.209439270035e-004 8.032147034040e-005 4.625656574644e-005 1.692911600101e-003 1.692851922779e-003 8.999083535941e-005 3.101058703636e-003 3.064717258584e-003 2.817099144234e-003 2.744304025610e-003 2.439982666155e-003 2.818118738049e-003 2.718675965913e-003 2.440977796468e-003 4.248638175661e-003 4.836460911577e-003 4.836528443896e-003 3.851290315999e-004 7.139802746817e-005 2.216698967454e-002 4.024187784990e-005 1.000000000000e-006 2.443215189469e-003 2.566100922895e-003 8.991329177847e-003 2.908613112436e-003 9.105323447236e-004 2.254768498247e-003 5.443803946398e-004 1.239994402760e-002 2.607447194745e-003 3.045626632416e-003 2.225844464961e-003 3.560742048079e-005 1.000000000000e-006 5.481998108516e-003 1.000000000000e-006 5.454594044603e-003 5.454611014642e-003 1.909161588267e-002 3.803739059802e-003 1.996071564627e-003 2.016181061537e-002 2.071449832148e-002 6.289435559077e-004 1.141907441298e-002 8.200271392379e-003 1.154848057679e-002 6.183646998125e-004 8.306590298842e-003 1.567381876709e-002 1.493258395481e-002 6.421261585074e-004 8.100874467041e-003 1.129465912971e-002 4.038644625325e-003 2.062151065018e-002 2.212532016601e-002 2.214278418752e-002 4.960793997165e-003 4.545679908832e-004 1.394272153355e-002 2.350848559712e-002 2.348347528387e-002 1.000000000000e-006 
        </DataArray>
      </PointData>
      <CellData>
        <DataArray type="Float64" Name="Capillary_Pressure" format="ascii">
          -5.527674860897e-020 1.321142475082e+005 5.314539045742e+003 -1.633148189814e-018 1.750902343318e+004 2.512721813803e+004 5.261827070992e+003 -1.866665195566e-019 -3.878624154860e-019 -1.394872814023e-018 0.000000000000e+000 -4.702311661518e-019 0.000000000000e+000 -1.591287170449e-018 -1.272739888346e-018 -4.563341976899e-019 -1.107713476729e-018 -2.677814714608e-019 -1.117101268953e-018 -4.888836248114e-019 0.000000000000e+000 -1.083993976802e-019 -7.283643059968e-020 -2.165598351242e-020 -6.593753395244e-020 -1.003250327815e-019 -4.286429071460e-019 -5.530167379033e-019 0.000000000000e+000 -3.850296467580e-019 -1.282474913067e-019 -3.233539384857e-020 -2.659142024751e-019 -2.258811849353e-019 -1.395898069042e-020 -2.760586426161e-020 -4.368921849476e-019 -1.269470969204e-019 -3.440067259589e-019 -4.323072753390e-019 -1.833065840942e-019 -2.568808521635e-019 -6.068582328939e-020 -2.843307670274e-019 -2.653721620728e-021 -7.795025934773e-020 -1.559451837068e-020 -1.995400960552e-019 -6.140109134545e-020 -9.898896447967e-020 -2.047957030543e-019 -8.783780092850e-019 -1.357719601281e-019 -4.397404515882e-020 -1.241638679075e-019 -1.223141345401e-019 0.000000000000e+000 -6.349484067247e-019 -1.405184567610e-019 -3.568474254979e-019 -3.368251080758e-020 -1.826096242103e-019 -2.225458574531e-019 0.000000000000e+000 -3.721068070692e-019 -2.318346817415e-022 -4.076960441980e-022 -5.143014266688e-023 -8.450235477993e-022 0.000000000000e+000 -1.374722363034e-018 -6.304739001126e-019 -9.071141902292e-019 -1.940020433807e-018 0.000000000000e+000 -2.548003253802e-019 -9.553219422916e-019 -4.340715515707e-019 -3.612059604653e-019 -2.765571645182e-019 -4.962265432882e-019 -5.363059171304e-019 -9.098014104546e-019 -1.305614542805e-018 -2.280982320067e-018 0.000000000000e+000 -6.084052154354e-020 -1.842577669072e-019 -3.910128148129e-020 0.000000000000e+000 -1.914602798828e-019 -4.523310111300e-020 -3.608655148236e-020 -1.809154021655e-022 -1.263613791817e-022 -1.621939417688e-019 0.000000000000e+000 -1.570531430376e-019 -1.338888230950e-019 -2.779302953475e-019 -6.556970932472e-020 -3.644794446815e-019 -5.744801259971e-019 -6.743072648407e-019 -2.548244168907e-019 -4.213490981455e-019 -2.542001465841e-020 -3.149491310319e-019 -1.892691269462e-021 -6.360515022739e-019 0.000000000000e+000 -6.919655590908e-020 -1.101620213577e-019 -3.905444714652e-019 0.000000000000e+000 -4.267212876799e-020 -2.344862695609e-018 -1.335836220909e-018 -1.560815532480e-018 -2.246416200570e-019 -3.335085295362e-020 -1.086772136211e-019 -1.119727450636e-019 -6.080003991211e-019 -1.394800112414e-018 -5.952772383772e-019 0.000000000000e+000 -1.917602201113e-018 0.000000000000e+000 -1.051917850131e-018 -2.791741077297e-019 6.138104656561e+004 8.291923242275e+004 -1.570455707221e-019 0.000000000000e+000 -1.626883648040e-019 -2.192959593066e-020 0.000000000000e+000 -2.538832882996e-020 -1.262233259971e-018 -1.052366678963e-018 -9.760545081151e-019 0.000000000000e+000 -2.305444719679e-019 -1.158496679840e-022 -3.855514953814e-022 -2.986182668677e-022 -1.617931902407e-022 -1.420141917012e-022 -2.133540668158e-018 -8.253392941579e-019 -4.743390394644e-019 -1.031792585536e-018 -3.141491293600e-019 0.000000000000e+000 -3.470097136833e-019 0.000000000000e+000 -6.095365949466e-019 -5.121215105847e-022 -1.442565901281e-022 -3.112696166109e-019 -3.955155033468e-020 0.000000000000e+000 -1.251881431411e-019 -2.123251770341e-019 -5.628881321730e-019 -4.399991769040e-019 0.000000000000e+000 -4.831573177866e-019 -4.720396592643e-020 1.194361124624e+005 -5.491158175549e-020 1.018289764984e+005 -9.114839929751e-020 -4.376126771477e-022 -1.527463337851e-022 -2.179077226469e-019 -2.630580468858e-019 -3.830339654006e-022 -1.607254351658e-022 -8.341049789768e-020 -5.853671140678e-019 -1.676958005943e-022 -2.005592964952e-022 -6.513366023541e-019 -3.407203947591e-019 -3.599711793758e-019 -4.749828539353e-019 -3.195708501220e-022 -2.651266894646e-022 -3.480852054067e-022 -2.750353278218e-022 -2.153883057210e-022 -2.521974993242e-022 -2.093767847342e-018 -4.242929312760e-019 -1.213247948413e-018 -2.403136742962e-019 -1.308756054537e-018 -1.253912276997e-019 -6.339084683335e-019 -1.215290810042e-022 -2.354229679082e-022 -7.526491376023e-022 -1.175248230615e-021 -1.095120131388e-022 -4.974238370147e-022 -1.956811854971e-022 0.000000000000e+000 -9.622982758689e-020 0.000000000000e+000 -1.052137506942e-019 -2.498980534986e-022 -2.076647110371e-023 -2.061704493473e-022 -6.319401034255e-021 -5.618177103835e-020 -4.028589869197e-019 -1.338344445390e-019 -2.803337301271e-019 -7.066134428286e-023 -4.245714855664e-020 -1.038156293297e-019 -2.226363060590e-019 -7.303396169250e-020 -8.127672728310e-021 -9.623308172016e-020 -7.469077591364e-021 -7.581213153974e-020 -1.286797557195e-019 -1.619373409191e-019 -1.720266696540e-019 -1.957993267075e-019 2.277793573691e+004 1.542116704889e+004 -1.557296927889e-024 -2.085153435325e-022 -2.033116585357e-022 -1.164913924927e-018 -9.419283623478e-019 -4.097793842789e-019 9.787384712440e+004 9.309050020884e+004 8.026680826138e+004 -4.014756892332e-020 -3.656925304564e-020 5.084378559074e+004 7.274385104346e+004 4.810787329587e+004 -1.446340824542e-019 -7.958643014248e-023 -6.508975709072e-019 -1.317985032011e-018 -4.574188728238e-019 0.000000000000e+000 -1.021236156112e-019 0.000000000000e+000 -4.413382660105e-022 -2.484643820466e-019 0.000000000000e+000 -3.204078222596e-019 0.000000000000e+000 0.000000000000e+000 -2.360200560151e-019 -2.652278529450e-018 -5.589479655493e-019 -6.286986026634e-019 -2.785095464548e-018 -2.974080027979e-019 -5.515725207988e-019 -3.254313002573e-019 -5.908838579224e-020 -2.829229138120e-019 -2.682079851281e-019 -4.518177928747e-022 -1.827252977492e-019 -4.276292898268e-022 -5.115393783184e-020 1.068142012012e+005 5.906697068042e+004 7.609704328082e+004 9.740150871690e+004 1.061670789397e+005 -1.474169389264e-018 -4.804178675374e-019 -6.972627359406e-019 -8.899100228200e-019 -8.480358781461e-020 -4.801285921216e-019 -1.177172890708e-019 0.000000000000e+000 -1.053051896620e-019 -3.363704317174e-019 -4.862260230878e-020 -2.883809472079e-020 0.000000000000e+000 -3.352903452467e-020 -1.517429102350e-019 -7.972361450156e-020 -1.260321324615e-020 -2.417327136653e-019 -8.340452977662e-020 0.000000000000e+000 -1.926679463853e-019 -7.165841394499e-020 -2.960697570435e-021 -1.758869552007e-019 -1.797779674814e-019 -4.372418281225e-019 -4.867585101270e-020 -8.283782783980e-019 -1.331208142742e-018 -1.869703765345e-018 -1.217271099419e-019 -2.061959224970e-019 -1.589658140422e-019 -3.112386028581e-020 -4.639469009195e-019 0.000000000000e+000 1.331248489196e+005 1.237332434993e+005 1.249373004200e+005 1.333123873264e+005 1.208152462905e+005 -2.806813711586e-020 -6.240770715503e-020 
        </DataArray>
        <DataArray type="Float64" Name="Gas_Pressure" format="ascii">