<?xml version="1.0"?>
<VTKFile type="UnstructuredGrid" version="0.1" byte_order="LittleEndian">
  <UnstructuredGrid>
    <Piece NumberOfPoints="206" NumberOfCells="326">
      <Points>
        <DataArray type="Float64" NumberOfComponents="3" format="ascii">
          1.897435897436e+002 0.000000000000e+000 0.000000000000e+000
          1.931791020913e+002 4.394475469951e+000 0.000000000000e+000
          1.948717948718e+002 0.000000000000e+000 0.000000000000e+000
          5.880459463038e+000 1.099154902703e+001 0.000000000000e+000
          0.000000000000e+000 6.666666666655e+000 0.000000000000e+000
          0.000000000000e+000 1.333333333332e+001 0.000000000000e+000
          2.022497621136e+001 4.353446977749e+000 0.000000000000e+000
          2.051282051291e+001 0.000000000000e+000 0.000000000000e+000
          1.538461538468e+001 0.000000000000e+000 0.000000000000e+000
          1.711973192023e+001 9.822643375701e+000 0.000000000000e+000
          2.235754985755e+001 9.965277777778e+000 0.000000000000e+000
          1.342973104686e+001 5.024912353671e+000 0.000000000000e+000
          2.051282051273e+001 2.000000000000e+001 0.000000000000e+000
          1.990430525733e+001 1.515950912857e+001 0.000000000000e+000
          1.538461538455e+001 2.000000000000e+001 0.000000000000e+000
          1.275415082211e+002 1.500000000000e+001 0.000000000000e+000
          1.305226984145e+002 1.000000000000e+001 0.000000000000e+000
          1.266144349478e+002 1.000000000000e+001 0.000000000000e+000
          1.320283396971e+002 1.500000000000e+001 0.000000000000e+000
          1.275415082214e+002 5.000000000000e+000 0.000000000000e+000
          1.320283396974e+002 5.000000000000e+000 0.000000000000e+000
          2.662324775127e+001 5.694754464286e+000 0.000000000000e+000
          2.617521367521e+001 1.000000000000e+001 0.000000000000e+000
          2.532894973587e+001 1.397776144540e+001 0.000000000000e+000
          1.184289081109e+002 1.400000000000e+001 0.000000000000e+000
          1.217390520306e+002 1.000000000000e+001 0.000000000000e+000
          1.150696490874e+002 1.000602607727e+001 0.000000000000e+000
          1.222794923522e+002 1.500000000000e+001 0.000000000000e+000
          1.184289081111e+002 6.000000000000e+000 0.000000000000e+000
          1.222794923525e+002 5.000000000000e+000 0.000000000000e+000
          1.647570346228e+002 1.499982920203e+001 0.000000000000e+000
          1.610766879766e+002 9.999898274740e+000 0.000000000000e+000
          1.584898332400e+002 1.571424274568e+001 0.000000000000e+000
          7.586604251621e+001 5.621173932933e+000 0.000000000000e+000
          8.021655268624e+001 1.019499276048e+001 0.000000000000e+000
          8.189146271784e+001 4.117034117006e+000 0.000000000000e+000
          7.588302713352e+001 1.447660101075e+001 0.000000000000e+000
          8.201035504047e+001 1.604351572524e+001 0.000000000000e+000
          1.647575611852e+002 4.999583052019e+000 0.000000000000e+000
          1.589293847822e+002 4.146609780286e+000 0.000000000000e+000
          1.641025641024e+002 2.000000000000e+001 0.000000000000e+000
          1.692307692306e+002 2.000000000000e+001 0.000000000000e+000
          1.660230030600e+002 1.000000000000e+001 0.000000000000e+000
          1.697917692894e+002 1.499909577546e+001 0.000000000000e+000
          1.641025641028e+002 0.000000000000e+000 0.000000000000e+000
          1.692307692309e+002 0.000000000000e+000 0.000000000000e+000
          1.697948641857e+002 4.997649016204e+000 0.000000000000e+000
          1.743589743588e+002 2.000000000000e+001 0.000000000000e+000
          1.710911944708e+002 1.000000000000e+001 0.000000000000e+000
          1.749412615107e+002 1.499457465278e+001 0.000000000000e+000
          1.743589743591e+002 0.000000000000e+000 0.000000000000e+000
          1.749598308881e+002 4.985894097222e+000 0.000000000000e+000
          1.794871794871e+002 2.000000000000e+001 0.000000000000e+000
          1.769615825547e+002 9.964192708333e+000 0.000000000000e+000
          1.806150388551e+002 1.469347696151e+001 0.000000000000e+000
          1.794871794873e+002 0.000000000000e+000 0.000000000000e+000
          1.803838168879e+002 4.953657234265e+000 0.000000000000e+000
          1.846153846153e+002 2.000000000000e+001 0.000000000000e+000
          1.846153846155e+002 0.000000000000e+000 0.000000000000e+000
          1.858160403609e+002 4.891281862002e+000 0.000000000000e+000
          1.487179487182e+002 0.000000000000e+000 0.000000000000e+000
          1.505413635482e+002 5.088785165962e+000 0.000000000000e+000
          1.538461538464e+002 0.000000000000e+000 0.000000000000e+000
          5.128205128183e+001 2.000000000000e+001 0.000000000000e+000
          4.937524205543e+001 1.478507223003e+001 0.000000000000e+000
          4.615384615364e+001 2.000000000000e+001 0.000000000000e+000
          4.335527308620e+001 1.560308717176e+001 0.000000000000e+000
          4.102564102546e+001 2.000000000000e+001 0.000000000000e+000
          4.429011235569e+001 1.011123788964e+001 0.000000000000e+000
          3.589743589728e+001 2.000000000000e+001 0.000000000000e+000
          3.424338337179e+001 1.480928422469e+001 0.000000000000e+000
          3.076923076909e+001 2.000000000000e+001 0.000000000000e+000
          3.005689385761e+001 1.060364436599e+001 0.000000000000e+000
          6.153846153820e+001 2.000000000000e+001 0.000000000000e+000
          5.861144803786e+001 1.567337793620e+001 0.000000000000e+000
          5.641025641001e+001 2.000000000000e+001 0.000000000000e+000
          6.364098538444e+001 1.500000000000e+001 0.000000000000e+000
          5.989457932650e+001 1.030421617259e+001 0.000000000000e+000
          6.666666666639e+001 2.000000000000e+001 0.000000000000e+000
          6.863961921157e+001 1.499549437831e+001 0.000000000000e+000
          6.567188823475e+001 9.930555555556e+000 0.000000000000e+000
          8.717948717914e+001 2.000000000000e+001 0.000000000000e+000
          8.205128205096e+001 2.000000000000e+001 0.000000000000e+000
          8.825660559227e+001 1.457690124438e+001 0.000000000000e+000
          9.230769230733e+001 2.000000000000e+001 0.000000000000e+000
          8.616129659787e+001 8.733480538898e+000 0.000000000000e+000
          9.150074733547e+001 1.030748155382e+001 0.000000000000e+000
          1.384615384618e+002 0.000000000000e+000 0.000000000000e+000
          1.415932379237e+002 4.335026874129e+000 0.000000000000e+000
          1.435897435900e+002 0.000000000000e+000 0.000000000000e+000
          1.370080938287e+002 5.069444256391e+000 0.000000000000e+000
          1.404454238813e+002 9.718036725159e+000 0.000000000000e+000
          1.333333333336e+002 0.000000000000e+000 0.000000000000e+000
          1.076923076927e+002 0.000000000000e+000 0.000000000000e+000
          1.108991862601e+002 4.857696974887e+000 0.000000000000e+000
          1.128205128209e+002 0.000000000000e+000 0.000000000000e+000
          1.230769230773e+002 0.000000000000e+000 0.000000000000e+000
          1.282051282055e+002 0.000000000000e+000 0.000000000000e+000
          1.421648412768e+002 1.518915604417e+001 0.000000000000e+000
          1.384615384612e+002 2.000000000000e+001 0.000000000000e+000
          1.435897435894e+002 2.000000000000e+001 0.000000000000e+000
          1.370080938284e+002 1.506944425639e+001 0.000000000000e+000
          1.333333333330e+002 2.000000000000e+001 0.000000000000e+000
          1.230769230766e+002 2.000000000000e+001 0.000000000000e+000
          1.282051282048e+002 2.000000000000e+001 0.000000000000e+000
          1.106262295343e+002 1.449114286029e+001 0.000000000000e+000
          1.076923076919e+002 2.000000000000e+001 0.000000000000e+000
          1.128205128202e+002 2.000000000000e+001 0.000000000000e+000
          1.060408540078e+002 1.575486111111e+001 0.000000000000e+000
          5.803874767782e+001 4.824157678094e+000 0.000000000000e+000
          6.153846153872e+001 0.000000000000e+000 0.000000000000e+000
          5.641025641050e+001 0.000000000000e+000 0.000000000000e+000
          6.364098538470e+001 5.000000000000e+000 0.000000000000e+000
          6.666666666694e+001 0.000000000000e+000 0.000000000000e+000
          6.863961921185e+001 4.974991732804e+000 0.000000000000e+000
          9.032615013277e+001 4.937074209742e+000 0.000000000000e+000
          9.230769230805e+001 0.000000000000e+000 0.000000000000e+000
          8.717948717983e+001 0.000000000000e+000 0.000000000000e+000
          1.524809577360e+002 1.505950683102e+001 0.000000000000e+000
          1.487179487177e+002 2.000000000000e+001 0.000000000000e+000
          1.538461538459e+002 2.000000000000e+001 0.000000000000e+000
          1.472187406962e+002 1.523528621385e+001 0.000000000000e+000
          4.767577943456e+001 4.990079365079e+000 0.000000000000e+000
          5.128205128227e+001 0.000000000000e+000 0.000000000000e+000
          4.615384615405e+001 0.000000000000e+000 0.000000000000e+000
          5.289188460113e+001 4.768994659147e+000 0.000000000000e+000
          4.250523169876e+001 4.799709939732e+000 0.000000000000e+000
          4.102564102582e+001 0.000000000000e+000 0.000000000000e+000
          3.076923076937e+001 0.000000000000e+000 0.000000000000e+000
          2.564102564114e+001 0.000000000000e+000 0.000000000000e+000
          3.231012230340e+001 5.174437830688e+000 0.000000000000e+000
          3.589743589759e+001 0.000000000000e+000 0.000000000000e+000
          3.747197445908e+001 4.807502868680e+000 0.000000000000e+000
          1.589743589741e+002 2.000000000000e+001 0.000000000000e+000
          1.551353134763e+002 9.374350718944e+000 0.000000000000e+000
          7.179487179516e+001 0.000000000000e+000 0.000000000000e+000
          7.179487179458e+001 2.000000000000e+001 0.000000000000e+000
          1.179487179484e+002 2.000000000000e+001 0.000000000000e+000
          1.179487179491e+002 0.000000000000e+000 0.000000000000e+000
[...]
      <PointData Scalars="MEAN_PRESSURE">
        <DataArray type="Float64" Name="MEAN_PRESSURE" format="ascii">
          1.000000000000e+006 1.000000000000e+006 1.000000000000e+006 1.000000000000e+006 1.000000000000e+006 1.000000000000e+006 1.000000000000e+006 1.000000000000e+006 1.000000000000e+006 1.000000000000e+006 1.000000000000e+006 1.000000000000e+006 1.000000000000e+006 1.000000000000e+006 1.000000000000e+006 1.000000000000e+006 1.000000000000e+006 1.000000000000e+006 1.000000000000e+006 1.000000000000e+006 1.000000000000e+006 1.000000000000e+006 1.000000000000e+006 1.000000000000e+006 1.000000000000e+006 1.000000000000e+006 1.000000000000e+006 1.000000000000e+006 1.000000000000e+006 1.000000000000e+006 1.000000000000e+006 1.000000000000e+006 1.000000000000e+006 1.000000000000e+006 1.000000000000e+006 1.000000000000e+006 1.000000000000e+006 1.000000000000e+006 1.000000000000e+006 1.000000000000e+006 1.000000000000e+006 1.000000000000e+006 1.000000000000e+006 1.000000000000e+006 1.000000000000e+006 1.000000000000e+006 1.000000000000e+006 1.000000000000e+006 1.000000000000e+006 1.000000000000e+006 1.000000000000e+006 1.000000000000e+006 1.000000000000e+006 1.000000000000e+006 1.000000000000e+006 1.000000000000e+006 1.000000000000e+006 1.000000000000e+006 1.000000000000e+006 1.000000000000e+006 1.000000000000e+006 1.000000000000e+006 1.000000000000e+006 1.000000000000e+006 1.000000000000e+006 1.000000000000e+006 1.000000000000e+006 1.000000000000e+006 1.000000000000e+006 1.000000000000e+006 1.000000000000e+006 1.000000000000e+006 1.000000000000e+006 1.000000000000e+006 1.000000000000e+006 1.000000000000e+006 1.000000000000e+006 1.000000000000e+006 1.000000000000e+006 1.000000000000e+006 1.000000000000e+006 1.000000000000e+006 1.000000000000e+006 1.000000000000e+006 1.000000000000e+006 1.000000000000e+006 1.000000000000e+006 1.000000000000e+006 1.000000000000e+006 1.000000000000e+006 1.000000000000e+006 1.000000000000e+006 1.000000000000e+006 1.000000000000e+006 1.000000000000e+006 1.000000000000e+006 1.000000000000e+006 1.000000000000e+006 1.000000000000e+006 1.000000000000e+006 1.000000000000e+006 1.000000000000e+006 1.000000000000e+006 1.000000000000e+006 1.000000000000e+006 1.000000000000e+006 1.000000000000e+006 1.000000000000e+006 1.000000000000e+006 1.000000000000e+006 1.000000000000e+006 1.000000000000e+006 1.000000000000e+006 1.000000000000e+006 1.000000000000e+006 1.000000000000e+006 1.000000000000e+006 1.000000000000e+006 1.000000000000e+006 1.000000000000e+006 1.000000000000e+006 1.000000000000e+006 1.000000000000e+006 1.000000000000e+006 1.000000000000e+006 1.000000000000e+006 1.000000000000e+006 1.000000000000e+006 1.000000000000e+006 1.000000000000e+006 1.000000000000e+006 1.000000000000e+006 1.000000000000e+006 1.000000000000e+006 1.000000000000e+006 1.000000000000e+006 1.000000000000e+006 1.000000000000e+006 1.000000000000e+006 1.000000000000e+006 1.000000000000e+006 1.000000000000e+006 1.000000000000e+006 1.000000000000e+006 1.000000000000e+006 1.000000000000e+006 1.000000000000e+006 1.000000000000e+006 1.000000000000e+006 1.000000000000e+006 1.000000000000e+006 1.000000000000e+006 1.000000000000e+006 1.000000000000e+006 1.000000000000e+006 1.000000000000e+006 1.000000000000e+006 1.000000000000e+006 1.000000000000e+006 1.000000000000e+006 1.000000000000e+006 1.000000000000e+006 1.000000000000e+006 1.000000000000e+006 1.000000000000e+006 1.000000000000e+006 1.000000000000e+006 1.000000000000e+006 1.000000000000e+006 1.000000000000e+006 1.000000000000e+006 1.000000000000e+006 1.000000000000e+006 1.000000000000e+006 1.000000000000e+006 1.000000000000e+006 1.000000000000e+006 1.000000000000e+006 1.000000000000e+006 1.000000000000e+006 1.000000000000e+006 1.000000000000e+006 1.000000000000e+006 1.000000000000e+006 1.000000000000e+006 1.000000000000e+006 1.000000000000e+006 1.000000000000e+006 1.000000000000e+006 1.000000000000e+006 1.000000000000e+006 1.000000000000e+006 1.000000000000e+006 1.000000000000e+006 1.000000000000e+006 1.000000000000e+006 1.000000000000e+006 1.000000000000e+006 1.000000000000e+006 1.000000000000e+006 1.000000000000e+006 1.000000000000e+006 1.000000000000e+006 1.000000000000e+006 1.000000000000e+006 1.000000000000e+006 
        </DataArray>
        <DataArray type="Float64" Name="TOTAL_MASS_DENSITY" format="ascii">
          1.000000000000e-006 1.000000000000e-006 1.000000000000e-006 1.000000000000e-006 1.000000000000e-006 1.000000000000e-006 1.000000000000e-006 1.000000000000e-006 1.000000000000e-006 1.000000000000e-006 1.000000000000e-006 1.000000000000e-006 1.000000000000e-006 1.000000000000e-006 1.000000000000e-006 1.000000000000e-006 1.000000000000e-006 1.000000000000e-006 1.000000000000e-006 1.000000000000e-006 1.000000000000e-006 1.000000000000e-006 1.000000000000e-006 1.000000000000e-006 1.000000000000e-006 1.000000000000e-006 1.000000000000e-006 1.000000000000e-006 1.000000000000e-006 1.000000000000e-006 1.000000000000e-006 1.000000000000e-006 1.000000000000e-006 1.000000000000e-006 1.000000000000e-006 1.000000000000e-006 1.000000000000e-006 1.000000000000e-006 1.000000000000e-006 1.000000000000e-006 1.000000000000e-006 1.000000000000e-006 1.000000000000e-006 1.000000000000e-006 1.000000000000e-006 1.000000000000e-006 1.000000000000e-006 1.000000000000e-006 1.000000000000e-006 1.000000000000e-006 1.000000000000e-006 1.000000000000e-006 1.000000000000e-006 1.000000000000e-006 1.000000000000e-006 1.000000000000e-006 1.000000000000e-006 1.000000000000e-006 1.000000000000e-006 1.000000000000e-006 1.000000000000e-006 1.000000000000e-006 1.000000000000e-006 1.000000000000e-006 1.000000000000e-006 1.000000000000e-006 1.000000000000e-006 1.000000000000e-006 1.000000000000e-006 1.000000000000e-006 1.000000000000e-006 1.000000000000e-006 1.000000000000e-006 1.000000000000e-006 1.000000000000e-006 1.000000000000e-006 1.000000000000e-006 1.000000000000e-006 1.000000000000e-006 1.000000000000e-006 1.000000000000e-006 1.000000000000e-006 1.000000000000e-006 1.000000000000e-006 1.000000000000e-006 1.000000000000e-006 1.000000000000e-006 1.000000000000e-006 1.000000000000e-006 1.000000000000e-006 1.000000000000e-006 1.000000000000e-006 1.000000000000e-006 1.000000000000e-006 1.000000000000e-006 1.000000000000e-006 1.000000000000e-006 1.000000000000e-006 1.000000000000e-006 1.000000000000e-006 1.000000000000e-006 1.000000000000e-006 1.000000000000e-006 1.000000000000e-006 1.000000000000e-006 1.000000000000e-006 1.000000000000e-006 1.000000000000e-006 1.000000000000e-006 1.000000000000e-006 1.000000000000e-006 1.000000000000e-006 1.000000000000e-006 1.000000000000e-006 1.000000000000e-006 1.000000000000e-006 1.000000000000e-006 1.000000000000e-006 1.000000000000e-006 1.000000000000e-006 1.000000000000e-006 1.000000000000e-006 1.000000000000e-006 1.000000000000e-006 1.000000000000e-006 1.000000000000e-006 1.000000000000e-006 1.000000000000e-006 1.000000000000e-006 1.000000000000e-006 1.000000000000e-006 1.000000000000e-006 1.000000000000e-006 1.000000000000e-006 1.000000000000e-006 1.000000000000e-006 1.000000000000e-006 1.000000000000e-006 1.000000000000e-006 1.000000000000e-006 1.000000000000e-006 1.000000000000e-006 1.000000000000e-006 1.000000000000e-006 1.000000000000e-006 1.000000000000e-006 1.000000000000e-006 1.000000000000e-006 1.000000000000e-006 1.000000000000e-006 1.000000000000e-006 1.000000000000e-006 1.000000000000e-006 1.000000000000e-006 1.000000000000e-006 1.000000000000e-006 1.000000000000e-006 1.000000000000e-006 1.000000000000e-006 1.000000000000e-006 1.000000000000e-006 1.000000000000e-006 1.000000000000e-006 1.000000000000e-006 1.000000000000e-006 1.000000000000e-006 1.000000000000e-006 1.000000000000e-006 1.000000000000e-006 1.000000000000e-006 1.000000000000e-006 1.000000000000e-006 1.000000000000e-006 1.000000000000e-006 1.000000000000e-006 1.000000000000e-006 1.000000000000e-006 1.000000000000e-006 1.000000000000e-006 1.000000000000e-006 1.000000000000e-006 1.000000000000e-006 1.000000000000e-006 1.000000000000e-006 1.000000000000e-006 1.000000000000e-006 1.000000000000e-006 1.000000000000e-006 1.000000000000e-006 1.000000000000e-006 1.000000000000e-006 1.000000000000e-006 1.000000000000e-006 1.000000000000e-006 1.000000000000e-006 1.000000000000e-006 1.000000000000e-006 1.000000000000e-006 1.000000000000e-006 1.000000000000e-006 1.000000000000e-006 1.000000000000e-006 1.000000000000e-006 1.000000000000e-006 1.000000000000e-006 1.000000000000e-006 
        </DataArray>
      </PointData>
      <CellData>
        <DataArray type="Float64" Name="Capillary_Pressure" format="ascii">
          0.000000000000e+000 0.000000000000e+000 0.000000000000e+000 0.000000000000e+000 0.000000000000e+000 0.000000000000e+000 0.000000000000e+000 0.000000000000e+000 0.000000000000e+000 0.000000000000e+000 0.000000000000e+000 0.000000000000e+000 0.000000000000e+000 0.000000000000e+000 0.000000000000e+000 0.000000000000e+000 0.000000000000e+000 0.000000000000e+000 0.000000000000e+000 0.000000000000e+000 0.000000000000e+000 0.000000000000e+000 0.000000000000e+000 0.000000000000e+000 0.000000000000e+000 0.000000000000e+000 0.000000000000e+000 0.000000000000e+000 0.000000000000e+000 0.000000000000e+000 0.000000000000e+000 0.000000000000e+000 0.000000000000e+000 0.000000000000e+000 0.000000000000e+000 0.000000000000e+000 0.000000000000e+000 0.000000000000e+000 0.000000000000e+000 0.000000000000e+000 0.000000000000e+000 0.000000000000e+000 0.000000000000e+000 0.000000000000e+000 0.000000000000e+000 0.000000000000e+000 0.000000000000e+000 0.000000000000e+000 0.000000000000e+000 0.000000000000e+000 0.000000000000e+000 0.000000000000e+000 0.000000000000e+000 0.000000000000e+000 0.000000000000e+000 0.000000000000e+000 0.000000000000e+000 0.000000000000e+000 0.000000000000e+000 0.000000000000e+000 0.000000000000e+000 0.000000000000e+000 0.000000000000e+000 0.000000000000e+000 0.000000000000e+000 0.000000000000e+000 0.000000000000e+000 0.000000000000e+000 0.000000000000e+000 0.000000000000e+000 0.000000000000e+000 0.000000000000e+000 0.000000000000e+000 0.000000000000e+000 0.000000000000e+000 0.000000000000e+000 0.000000000000e+000 0.000000000000e+000 0.000000000000e+000 0.000000000000e+000 0.000000000000e+000 0.000000000000e+000 0.000000000000e+000 0.000000000000e+000 0.000000000000e+000 0.000000000000e+000 0.000000000000e+000 0.000000000000e+000 0.000000000000e+000 0.000000000000e+000 0.000000000000e+000 0.000000000000e+000 0.000000000000e+000 0.000000000000e+000 0.000000000000e+000 0.000000000000e+000 0.000000000000e+000 0.000000000000e+000 0.000000000000e+000 0.000000000000e+000 0.000000000000e+000 0.000000000000e+000 0.000000000000e+000 0.000000000000e+000 0.000000000000e+000 0.000000000000e+000 0.000000000000e+000 0.000000000000e+000 0.000000000000e+000 0.000000000000e+000 0.000000000000e+000 0.000000000000e+000 0.000000000000e+000 0.000000000000e+000 0.000000000000e+000 0.000000000000e+000 0.000000000000e+000 0.000000000000e+000 0.000000000000e+000 0.000000000000e+000 0.000000000000e+000 0.000000000000e+000 0.000000000000e+000 0.000000000000e+000 0.000000000000e+000 0.000000000000e+000 0.000000000000e+000 0.000000000000e+000 0.000000000000e+000 0.000000000000e+000 0.000000000000e+000 0.000000000000e+000 0.000000000000e+000 0.000000000000e+000 0.000000000000e+000 0.000000000000e+000 0.000000000000e+000 0.000000000000e+000 0.000000000000e+000 0.000000000000e+000 0.000000000000e+000 0.000000000000e+000 0.000000000000e+000 0.000000000000e+000 0.000000000000e+000 0.000000000000e+000 0.000000000000e+000 0.000000000000e+000 0.000000000000e+000 0.000000000000e+000 0.000000000000e+000 0.000000000000e+000 0.000000000000e+000 0.000000000000e+000 0.000000000000e+000 0.000000000000e+000 0.000000000000e+000 0.000000000000e+000 0.000000000000e+000 0.000000000000e+000 0.000000000000e+000 0.000000000000e+000 0.000000000000e+000 0.000000000000e+000 0.000000000000e+000 0.000000000000e+000 0.000000000000e+000 0.000000000000e+000 0.000000000000e+000 0.000000000000e+000 0.000000000000e+000 0.000000000000e+000 0.000000000000e+000 0.000000000000e+000 0.000000000000e+000 0.000000000000e+000 0.000000000000e+000 0.000000000000e+000 0.000000000000e+000 0.000000000000e+000 0.000000000000e+000 0.000000000000e+000 0.000000000000e+000 0.000000000000e+000 0.000000000000e+000 0.000000000000e+000 0.000000000000e+000 0.000000000000e+000 0.000000000000e+000 0.000000000000e+000 0.000000000000e+000 0.000000000000e+000 0.000000000000e+000 0.000000000000e+000 0.000000000000e+000 0.000000000000e+000 0.000000000000e+000 0.000000000000e+000 0.000000000000e+000 0.000000000000e+000 0.000000000000e+000 0.000000000000e+000 0.000000000000e+000 0.000000000000e+000 0.000000000000e+000 0.000000000000e+000 0.000000000000e+000 0.000000000000e+000 0.000000000000e+000 0.000000000000e+000 0.000000000000e+000 0.000000000000e+000 0.000000000000e+000 0.000000000000e+000 0.000000000000e+000 0.000000000000e+000 0.000000000000e+000 0.000000000000e+000 0.000000000000e+000 0.000000000000e+000 0.000000000000e+000 0.000000000000e+000 0.000000000000e+000 0.000000000000e+000 0.000000000000e+000 0.000000000000e+000 0.000000000000e+000 0.000000000000e+000 0.000000000000e+000 0.000000000000e+000 0.000000000000e+000 0.000000000000e+000 0.000000000000e+000 0.000000000000e+000 0.000000000000e+000 0.000000000000e+000 0.000000000000e+000 0.000000000000e+000 0.000000000000e+000 0.000000000000e+000 0.000000000000e+000 0.000000000000e+000 0.000000000000e+000 0.000000000000e+000 0.000000000000e+000 0.000000000000e+000 0.000000000000e+000 0.000000000000e+000 0.000000000000e+000 0.000000000000e+000 0.000000000000e+000 0.000000000000e+000 0.000000000000e+000 0.000000000000e+000 0.000000000000e+000 0.000000000000e+000 0.000000000000e+000 0.000000000000e+000 0.000000000000e+000 0.000000000000e+000 0.000000000000e+000 0.000000000000e+000 0.000000000000e+000 0.000000000000e+000 0.000000000000e+000 0.000000000000e+000 0.000000000000e+000 0.000000000000e+000 0.000000000000e+000 0.000000000000e+000 0.000000000000e+000 0.000000000000e+000 0.000000000000e+000 0.000000000000e+000 0.000000000000e+000 0.000000000000e+000 0.000000000000e+000 0.000000000000e+000 0.000000000000e+000 0.000000000000e+000 0.000000000000e+000 0.000000000000e+000 0.000000000000e+000 0.000000000000e+000 0.000000000000e+000 0.000000000000e+000 0.000000000000e+000 0.000000000000e+000 0.000000000000e+000 0.000000000000e+000 0.000000000000e+000 0.000000000000e+000 0.000000000000e+000 0.000000000000e+000 0.000000000000e+000 0.000000000000e+000 0.000000000000e+000 0.000000000000e+000 0.000000000000e+000 0.000000000000e+000 0.000000000000e+000 0.000000000000e+000 0.000000000000e+000 0.000000000000e+000 0.000000000000e+000 0.000000000000e+000 0.000000000000e+000 0.000000000000e+000 0.000000000000e+000 0.000000000000e+000 0.000000000000e+000 0.000000000000e+000 0.000000000000e+000 0.000000000000e+000 0.000000000000e+000 0.000000000000e+000 0.000000000000e+000 0.000000000000e+000 0.000000000000e+000 0.000000000000e+000 0.000000000000e+000 0.000000000000e+000 0.000000000000e+000 0.000000000000e+000 0.000000000000e+000 0.000000000000e+000 
        </DataArray>
        <DataArray type="Float64" Name="Gas_Pressure" format="ascii">