<?xml version="1.0"?>
<VTKFile type="UnstructuredGrid" version="0.1" byte_order="LittleEndian">
  <UnstructuredGrid>
    <Piece NumberOfPoints="206" NumberOfCells="326">
      <Points>
        <DataArray type="Float64" NumberOfComponents="3" format="ascii">
          1.897435897436e+002 0.000000000000e+000 0.000000000000e+000
          1.931791020913e+002 4.394475469951e+000 0.000000000000e+000
          1.948717948718e+002 0.000000000000e+000 0.000000000000e+000
          5.880459463038e+000 1.099154902703e+001 0.000000000000e+000
          0.000000000000e+000 6.666666666655e+000 0.000000000000e+000
          0.000000000000e+000 1.333333333332e+001 0.000000000000e+000
          2.022497621136e+001 4.353446977749e+000 0.000000000000e+000
          2.051282051291e+001 0.000000000000e+000 0.000000000000e+000
          1.538461538468e+001 0.000000000000e+000 0.000000000000e+000
          1.711973192023e+001 9.822643375701e+000 0.000000000000e+000
          2.235754985755e+001 9.965277777778e+000 0.000000000000e+000
          1.342973104686e+001 5.024912353671e+000 0.000000000000e+000
          2.051282051273e+001 2.000000000000e+001 0.000000000000e+000
          1.990430525733e+001 1.515950912857e+001 0.000000000000e+000
          1.538461538455e+001 2.000000000000e+001 0.000000000000e+000
          1.275415082211e+002 1.500000000000e+001 0.000000000000e+000
          1.305226984145e+002 1.000000000000e+001 0.000000000000e+000
          1.266144349478e+002 1.000000000000e+001 0.000000000000e+000
          1.320283396971e+002 1.500000000000e+001 0.000000000000e+000
          1.275415082214e+002 5.000000000000e+000 0.000000000000e+000
          1.320283396974e+002 5.000000000000e+000 0.000000000000e+000
          2.662324775127e+001 5.694754464286e+000 0.000000000000e+000
          2.617521367521e+001 1.000000000000e+001 0.000000000000e+000
          2.532894973587e+001 1.397776144540e+001 0.000000000000e+000
          1.184289081109e+002 1.400000000000e+001 0.000000000000e+000
          1.217390520306e+002 1.000000000000e+001 0.000000000000e+000
          1.150696490874e+002 1.000602607727e+001 0.000000000000e+000
          1.222794923522e+002 1.500000000000e+001 0.000000000000e+000
          1.184289081111e+002 6.000000000000e+000 0.000000000000e+000
          1.222794923525e+002 5.000000000000e+000 0.000000000000e+000
          1.647570346228e+002 1.499982920203e+001 0.000000000000e+000
          1.610766879766e+002 9.999898274740e+000 0.000000000000e+000
          1.584898332400e+002 1.571424274568e+001 0.000000000000e+000
          7.586604251621e+001 5.621173932933e+000 0.000000000000e+000
          8.021655268624e+001 1.019499276048e+001 0.000000000000e+000
          8.189146271784e+001 4.117034117006e+000 0.000000000000e+000
          7.588302713352e+001 1.447660101075e+001 0.000000000000e+000
          8.201035504047e+001 1.604351572524e+001 0.000000000000e+000
          1.647575611852e+002 4.999583052019e+000 0.000000000000e+000
          1.589293847822e+002 4.146609780286e+000 0.000000000000e+000
          1.641025641024e+002 2.000000000000e+001 0.000000000000e+000
          1.692307692306e+002 2.000000000000e+001 0.000000000000e+000
          1.660230030600e+002 1.000000000000e+001 0.000000000000e+000
          1.697917692894e+002 1.499909577546e+001 0.000000000000e+000
          1.641025641028e+002 0.000000000000e+000 0.000000000000e+000
          1.692307692309e+002 0.000000000000e+000 0.000000000000e+000
          1.697948641857e+002 4.997649016204e+000 0.000000000000e+000
          1.743589743588e+002 2.000000000000e+001 0.000000000000e+000
          1.710911944708e+002 1.000000000000e+001 0.000000000000e+000
          1.749412615107e+002 1.499457465278e+001 0.000000000000e+000
          1.743589743591e+002 0.000000000000e+000 0.000000000000e+000
          1.749598308881e+002 4.985894097222e+000 0.000000000000e+000
          1.794871794871e+002 2.000000000000e+001 0.000000000000e+000
          1.769615825547e+002 9.964192708333e+000 0.000000000000e+000
          1.806150388551e+002 1.469347696151e+001 0.000000000000e+000
          1.794871794873e+002 0.000000000000e+000 0.000000000000e+000
          1.803838168879e+002 4.953657234265e+000 0.000000000000e+000
          1.846153846153e+002 2.000000000000e+001 0.000000000000e+000
          1.846153846155e+002 0.000000000000e+000 0.000000000000e+000
          1.858160403609e+002 4.891281862002e+000 0.000000000000e+000
          1.487179487182e+002 0.000000000000e+000 0.000000000000e+000
          1.505413635482e+002 5.088785165962e+000 0.000000000000e+000
          1.538461538464e+002 0.000000000000e+000 0.000000000000e+000
          5.128205128183e+001 2.000000000000e+001 0.000000000000e+000
          4.937524205543e+001 1.478507223003e+001 0.000000000000e+000
          4.615384615364e+001 2.000000000000e+001 0.000000000000e+000
          4.335527308620e+001 1.560308717176e+001 0.000000000000e+000
          4.102564102546e+001 2.000000000000e+001 0.000000000000e+000
          4.429011235569e+001 1.011123788964e+001 0.000000000000e+000
          3.589743589728e+001 2.000000000000e+001 0.000000000000e+000
          3.424338337179e+001 1.480928422469e+001 0.000000000000e+000
          3.076923076909e+001 2.000000000000e+001 0.000000000000e+000
          3.005689385761e+001 1.060364436599e+001 0.000000000000e+000
          6.153846153820e+001 2.000000000000e+001 0.000000000000e+000
          5.861144803786e+001 1.567337793620e+001 0.000000000000e+000
          5.641025641001e+001 2.000000000000e+001 0.000000000000e+000
          6.364098538444e+001 1.500000000000e+001 0.000000000000e+000
          5.989457932650e+001 1.030421617259e+001 0.000000000000e+000
          6.666666666639e+001 2.000000000000e+001 0.000000000000e+000
          6.863961921157e+001 1.499549437831e+001 0.000000000000e+000
          6.567188823475e+001 9.930555555556e+000 0.000000000000e+000
          8.717948717914e+001 2.000000000000e+001 0.000000000000e+000
          8.205128205096e+001 2.000000000000e+001 0.000000000000e+000
          8.825660559227e+001 1.457690124438e+001 0.000000000000e+000
          9.230769230733e+001 2.000000000000e+001 0.000000000000e+000
          8.616129659787e+001 8.733480538898e+000 0.000000000000e+000
          9.150074733547e+001 1.030748155382e+001 0.000000000000e+000
          1.384615384618e+002 0.000000000000e+000 0.000000000000e+000
          1.415932379237e+002 4.335026874129e+000 0.000000000000e+000
          1.435897435900e+002 0.000000000000e+000 0.000000000000e+000
          1.370080938287e+002 5.069444256391e+000 0.000000000000e+000
          1.404454238813e+002 9.718036725159e+000 0.000000000000e+000
          1.333333333336e+002 0.000000000000e+000 0.000000000000e+000
          1.076923076927e+002 0.000000000000e+000 0.000000000000e+000
          1.108991862601e+002 4.857696974887e+000 0.000000000000e+000
          1.128205128209e+002 0.000000000000e+000 0.000000000000e+000
          1.230769230773e+002 0.000000000000e+000 0.000000000000e+000
          1.282051282055e+002 0.000000000000e+000 0.000000000000e+000
          1.421648412768e+002 1.518915604417e+001 0.000000000000e+000
          1.384615384612e+002 2.000000000000e+001 0.000000000000e+000
          1.435897435894e+002 2.000000000000e+001 0.000000000000e+000
          1.370080938284e+002 1.506944425639e+001 0.000000000000e+000
          1.333333333330e+002 2.000000000000e+001 0.000000000000e+000
          1.230769230766e+002 2.000000000000e+001 0.000000000000e+000
          1.282051282048e+002 2.000000000000e+001 0.000000000000e+000
          1.106262295343e+002 1.449114286029e+001 0.000000000000e+000
          1.076923076919e+002 2.000000000000e+001 0.000000000000e+000
          1.128205128202e+002 2.000000000000e+001 0.000000000000e+000
          1.060408540078e+002 1.575486111111e+001 0.000000000000e+000
          5.803874767782e+001 4.824157678094e+000 0.000000000000e+000
          6.153846153872e+001 0.000000000000e+000 0.000000000000e+000
          5.641025641050e+001 0.000000000000e+000 0.000000000000e+000
          6.364098538470e+001 5.000000000000e+000 0.000000000000e+000
          6.666666666694e+001 0.000000000000e+000 0.000000000000e+000
          6.863961921185e+001 4.974991732804e+000 0.000000000000e+000
          9.032615013277e+001 4.937074209742e+000 0.000000000000e+000
          9.230769230805e+001 0.000000000000e+000 0.000000000000e+000
          8.717948717983e+001 0.000000000000e+000 0.000000000000e+000
          1.524809577360e+002 1.505950683102e+001 0.000000000000e+000
          1.487179487177e+002 2.000000000000e+001 0.000000000000e+000
          1.538461538459e+002 2.000000000000e+001 0.000000000000e+000
          1.472187406962e+002 1.523528621385e+001 0.000000000000e+000
          4.767577943456e+001 4.990079365079e+000 0.000000000000e+000
          5.128205128227e+001 0.000000000000e+000 0.000000000000e+000
          4.615384615405e+001 0.000000000000e+000 0.000000000000e+000
          5.289188460113e+001 4.768994659147e+000 0.000000000000e+000
          4.250523169876e+001 4.799709939732e+000 0.000000000000e+000
          4.102564102582e+001 0.000000000000e+000 0.000000000000e+000
          3.076923076937e+001 0.000000000000e+000 0.000000000000e+000
          2.564102564114e+001 0.000000000000e+000 0.000000000000e+000
          3.231012230340e+001 5.174437830688e+000 0.000000000000e+000
          3.589743589759e+001 0.000000000000e+000 0.000000000000e+000
          3.747197445908e+001 4.807502868680e+000 0.000000000000e+000
          1.589743589741e+002 2.000000000000e+001 0.000000000000e+000
          1.551353134763e+002 9.374350718944e+000 0.000000000000e+000
          7.179487179516e+001 0.000000000000e+000 0.000000000000e+000
          7.179487179458e+001 2.000000000000e+001 0.000000000000e+000
          1.179487179484e+002 2.000000000000e+001 0.000000000000e+000
          1.179487179491e+002 0.000000000000e+000 0.000000000000e+000
[...]
      <PointData Scalars="MEAN_PRESSURE">
        <DataArray type="Float64" Name="MEAN_PRESSURE" format="ascii">
          1.008622722063e+006 1.005734859664e+006 1.004311749586e+006 1.134285622482e+006 1.135358667131e+006 1.135297595641e+006 1.129797182802e+006 1.129670536891e+006 1.131420952664e+006 1.130835111379e+006 1.129000710595e+006 1.131918758614e+006 1.129680738691e+006 1.129908128743e+006 1.131363776070e+006 1.060392733737e+006 1.057963699262e+006 1.061146355663e+006 1.056733147052e+006 1.060392711482e+006 1.056733096023e+006 1.127334499425e+006 1.127503723073e+006 1.127855525785e+006 1.067748662984e+006 1.065090825742e+006 1.070434567956e+006 1.064654830550e+006 1.067748644158e+006 1.064654818383e+006 1.029589741448e+006 1.032667535170e+006 1.034828581781e+006 1.099811780114e+006 1.096782386408e+006 1.095598803556e+006 1.099800594325e+006 1.095518221008e+006 1.029589224679e+006 1.034461349299e+006 1.030137224140e+006 1.025843439161e+006 1.028530047299e+006 1.025373304766e+006 1.030137124709e+006 1.025843386337e+006 1.025370672227e+006 1.021543791057e+006 1.024284132814e+006 1.021055232658e+006 1.021543758249e+006 1.021039618722e+006 1.017239713389e+006 1.019359879497e+006 1.016292633220e+006 1.017239700259e+006 1.016486752182e+006 1.012932364843e+006 1.012932385139e+006 1.011923567730e+006 1.042966439290e+006 1.041451294490e+006 1.038701216434e+006 1.115315414013e+006 1.116388341620e+006 1.118137673799e+006 1.119611411307e+006 1.120797526747e+006 1.119130236357e+006 1.123282456953e+006 1.124049273431e+006 1.125592124001e+006 1.125899868365e+006 1.109214377770e+006 1.111013375352e+006 1.112337806904e+006 1.107895243751e+006 1.110234565947e+006 1.105957740637e+006 1.104671032466e+006 1.106602850283e+006 1.091791923256e+006 1.095482407139e+006 1.091007955624e+006 1.088016056887e+006 1.092536196564e+006 1.088615694058e+006 1.051451537587e+006 1.048868132579e+006 1.047217655104e+006 1.052648015602e+006 1.049816506336e+006 1.055664657841e+006 1.076254979419e+006 1.073736833422e+006 1.072218364912e+006 1.064011270783e+006 1.059852612628e+006 1.048396079667e+006 1.051451667823e+006 1.047217735784e+006 1.052648135739e+006 1.055664705294e+006 1.064011281415e+006 1.059852640335e+006 1.073951915551e+006 1.076254886028e+006 1.072218078115e+006 1.077542596169e+006 1.111362068699e+006 1.109214822509e+006 1.112338541286e+006 1.107896283351e+006 1.105958218284e+006 1.104671304606e+006 1.089484283824e+006 1.088015271829e+006 1.091792259758e+006 1.039837805256e+006 1.042966442984e+006 1.038700704789e+006 1.044210979290e+006 1.117318844143e+006 1.115317342895e+006 1.118140787713e+006 1.114398431522e+006 1.120050159101e+006 1.120800749544e+006 1.125593004868e+006 1.127719072767e+006 1.124919518594e+006 1.123287162100e+006 1.122541826202e+006 1.034423210005e+006 1.037627008753e+006 1.102576851782e+006 1.102576685988e+006 1.068135923300e+006 1.068135936739e+006 1.133022191186e+006 1.133988508769e+006 1.014155697239e+006 1.009658046050e+006 1.005624360837e+006 1.070411025229e+006 1.070411090980e+006 1.010789881883e+006 1.086791618235e+006 1.086460062285e+006 1.084162650830e+006 1.083426655675e+006 1.080239376255e+006 1.084161118046e+006 1.083191291661e+006 1.080237951264e+006 1.095485700088e+006 1.099087562443e+006 1.099087438275e+006 1.034423195765e+006 1.008622731149e+006 1.134589969338e+006 1.004891821764e+006 1.000000000000e+006 1.080248578677e+006 1.081597809068e+006 1.115782279991e+006 1.085027731478e+006 1.054523143165e+006 1.078108015291e+006 1.042184399013e+006 1.123642246235e+006 1.082024607760e+006 1.086284892996e+006 1.077740498804e+006 1.004311713987e+006 1.000000000000e+006 1.102542487457e+006 1.000000000000e+006 1.102380112242e+006 1.102380122130e+006 1.131676283932e+006 1.092411609720e+006 1.074805561397e+006 1.132571496695e+006 1.133184482103e+006 1.045565128024e+006 1.121723115711e+006 1.113397614026e+006 1.121977406446e+006 1.045139964236e+006 1.113719309649e+006 1.128712153848e+006 1.127729611545e+006 1.046037792922e+006 1.113064683138e+006 1.121450824807e+006 1.094059844441e+006 1.132885369681e+006 1.134397964701e+006 1.134631423528e+006 1.099745725139e+006 1.038061398669e+006 1.126257996594e+006 1.135310561965e+006 1.135264755121e+006 1.000000000000e+006 
        </DataArray>
        <DataArray type="Float64" Name="TOTAL_MASS_DENSITY" format="ascii">
          3.031552412416e-005 2.004821490088e-005 1.524886420669e-005 1.980171692031e-002 2.185774845548e-002 2.184240840243e-002 1.431095293929e-002 1.424151542509e-002 1.583515799021e-002 1.525307464265e-002 1.368684669690e-002 1.642829450523e-002 1.422061457880e-002 1.439267544896e-002 1.581316491422e-002 6.576864569190e-004 5.875900518716e-004 6.807341107259e-004 5.548602198592e-004 6.577039019986e-004 5.548992948080e-004 1.250064715199e-002 1.262808139882e-002 1.285015806264e-002 9.199199441324e-004 8.149241580614e-004 1.034197987952e-003 7.991625922302e-004 9.199342237864e-004 7.991724924817e-004 1.410395846772e-004 1.670697076964e-004 1.873515875660e-004 3.634726403824e-003 3.202039381210e-003 3.046065935299e-003 3.632633227795e-003 3.032865534512e-003 1.411014438735e-004 1.839306074635e-004 1.455305824596e-004 1.138718162583e-004 1.329581389879e-004 1.107793712618e-004 1.456160358763e-004 1.139185286886e-004 1.107970949262e-004 8.760139720420e-005 1.038299960190e-004 8.494373888542e-005 8.763189044794e-005 8.489132290039e-005 6.556443752861e-005 7.597595984440e-005 6.117897304835e-005 6.557723612034e-005 6.211853310487e-005 4.676819585179e-005 4.674765682853e-005 4.269723517860e-005 2.852285218322e-004 2.642377613128e-004 2.294001868623e-004 7.046452799981e-003 7.386847698104e-003 7.997670040338e-003 8.554423374209e-003 9.040533274934e-003 8.362514187392e-003 1.018152349094e-002 1.056927427370e-002 1.142238000818e-002 1.160282398023e-002 5.406402771848e-003 5.840789668472e-003 6.184091793291e-003 5.110211119635e-003 5.644631020375e-003 4.707188557271e-003 4.458292224514e-003 4.834880535538e-003 2.596778924456e-003 3.033306295092e-003 2.510546440932e-003 2.213317580067e-003 2.676294915241e-003 2.270218707148e-003 4.322884118298e-004 3.817158574121e-004 3.521253326865e-004 4.576339994652e-004 3.991166019584e-004 5.278759948824e-004 1.337266884431e-003 1.197646763729e-003 1.120431349937e-003 7.760909053393e-004 6.416511703583e-004 3.728782138316e-004 4.321883096157e-004 3.520582857485e-004 4.575430397762e-004 5.278384793692e-004 7.760812979795e-004 6.416291273080e-004 1.209034593898e-003 1.337326399905e-003 1.120618228545e-003 1.415159245802e-003 5.927814897290e-003 5.406227661497e-003 6.183849214944e-003 5.109641462709e-003 4.706946164448e-003 4.458154022129e-003 2.355707658916e-003 2.213791860014e-003 2.596552139072e-003 2.433508879677e-004 2.852209056356e-004 2.298178232705e-004 3.034472585198e-004 7.705221476580e-003 7.045730649076e-003 7.996609530733e-003 6.765775931244e-003 8.729219094292e-003 9.039813423419e-003 1.142301434860e-002 1.277430965675e-002 1.103820575564e-002 1.018024257361e-002 9.819764286915e-003 1.840672093985e-004 2.169794185980e-004 4.082126292883e-003 4.082204971873e-003 9.339925528783e-004 9.339864474064e-004 1.762409479466e-002 1.894822114524e-002 5.182814439784e-005 3.411697795340e-005 1.970590277479e-005 1.035347286792e-003 1.035300175690e-003 3.822908776529e-005 2.101412401945e-003 2.072843919591e-003 1.878567207698e-003 1.822266913857e-003 1.588229429075e-003 1.879530039204e-003 1.802166238430e-003 1.589141339066e-003 3.031270184780e-003 3.522400067083e-003 3.522466935186e-003 1.840776753141e-004 3.030621426366e-005 2.003251276301e-002 1.719502805117e-005 1.000000000000e-006 1.591001349100e-003 1.684769070063e-003 7.192413146305e-003 1.950149981919e-003 5.000004373559e-004 1.448057201724e-003 2.742169803659e-004 1.036151960650e-002 1.716627601127e-003 2.057846979608e-003 1.426550820648e-003 1.528640227732e-005 1.000000000000e-006 4.071895743777e-003 1.000000000000e-006 4.048946177960e-003 4.048957721064e-003 1.623395183229e-002 2.665908192535e-003 1.255738434252e-003 1.715133412672e-002 1.782900550123e-002 3.243415960493e-004 9.440239242345e-003 6.472967358267e-003 9.561993610569e-003 3.180827610884e-004 6.569607801499e-003 1.347070420464e-002 1.276551229313e-002 3.323473793263e-004 6.383527118382e-003 9.323999203747e-003 2.858386202685e-003 1.761645612311e-002 2.007262242731e-002 2.006036698915e-002 3.628379927528e-003 2.226625435260e-004 1.182220060203e-002 2.183329643543e-002 2.178035110462e-002 1.000000000000e-006 
        </DataArray>
      </PointData>
      <CellData>
        <DataArray type="Float64" Name="Capillary_Pressure" format="ascii">
          -6.369071739659e-023 1.011844148392e+005 0.000000000000e+000 -6.322467220622e-023 -4.631419777580e-015 0.000000000000e+000 -1.537987779704e-017 -5.470103982039e-022 -1.148208967318e-022 -2.157979466232e-022 0.000000000000e+000 -5.181893236955e-023 -3.013337975361e-017 0.000000000000e+000 -4.636811831298e-017 -9.809216395759e-018 -1.088314836885e-022 -7.958200410417e-023 -7.519773437857e-023 -1.657306844439e-022 -1.262347205613e-022 -6.461035746325e-022 -4.127737996858e-021 -3.647506401106e-023 -4.167093571113e-022 -1.746273269995e-022 -2.053044876627e-022 -1.427977132086e-022 -3.372858393413e-022 -7.851724312644e-023 -7.750175227117e-024 -6.526165861486e-023 -1.386707106712e-022 -2.072530435669e-022 -2.484460633687e-022 -1.943779395017e-023 -9.975450892497e-024 -6.777103060930e-023 -3.383823678549e-022 -7.045196635257e-023 -1.465074155534e-022 -3.572521954158e-022 -2.046626471237e-022 -1.440319842592e-022 -2.916123530753e-022 -8.110986980906e-023 -5.681877672115e-022 -1.279720484580e-022 0.000000000000e+000 -8.340932009631e-024 -6.525242005621e-022 -2.897637199441e-022 -1.683889982723e-021 -2.839151750609e-020 -5.725190829785e-020 0.000000000000e+000 0.000000000000e+000 -8.452591646287e-019 -1.045522765890e-021 -1.133065862498e-020 -1.251034862979e-020 -1.683402330020e-021 -4.528947639836e-021 -1.219364377449e-020 -2.934330859533e-021 -8.369956556832e-022 -1.736253573955e-021 -2.162063682918e-022 -4.676534258456e-022 -4.818180984455e-023 -2.433259294000e-022 -1.045428311179e-022 0.000000000000e+000 -2.336161612272e-022 -2.018723119503e-022 -3.144652096798e-022 -1.215955123346e-022 -1.838213325885e-022 -2.293465602946e-022 -2.140473276910e-022 -2.738583328118e-022 -2.294185935471e-022 -2.427868897569e-022 -2.543350471126e-022 -1.963036450945e-022 -1.307652497951e-022 -5.743695377476e-021 0.000000000000e+000 -5.439827343926e-021 -1.456711034605e-022 -4.399363623187e-021 0.000000000000e+000 -1.228388122614e-021 -4.890912349441e-022 -1.717209232349e-022 0.000000000000e+000 -4.552755501469e-022 -7.482030196915e-020 -3.803248593596e-020 -9.007705995091e-020 0.000000000000e+000 -4.559180843921e-020 -5.936116237418e-017 -1.290976335533e-018 -1.305601715677e-017 -1.181550318279e-017 -5.395030525592e-023 -3.454072289005e-022 -2.822877373771e-022 -3.315753252036e-022 -2.079111854949e-022 -5.321156011255e-020 -6.189668594662e-021 0.000000000000e+000 -1.777823767030e-022 -6.015206296785e-022 -7.577240525427e-023 -1.175302306788e-023 -3.713297628753e-022 -1.179789211095e-019 -1.847428560088e-019 0.000000000000e+000 0.000000000000e+000 -7.162152985671e-024 -6.342764852752e-023 -8.038246624783e-024 0.000000000000e+000 -3.672080224553e-022 -4.113999471203e-023 -1.956826224833e-022 -2.467977928103e-022 -1.011825549895e-015 1.584494692771e+004 -2.511976634443e-022 -4.799214092542e-024 -1.119568121420e-022 -2.005652641488e-022 -3.220191536538e-022 0.000000000000e+000 -4.369089481720e-023 -1.590028686725e-022 -4.621822949098e-024 -1.727942386857e-022 -3.573044047928e-023 -1.652236049421e-023 -6.601291754479e-022 -6.155802511071e-022 -1.027039752275e-022 -1.800533666193e-022 -5.263237475310e-023 -1.200657163091e-022 -4.641503279101e-023 0.000000000000e+000 -1.864442581650e-023 -8.724210474706e-023 -2.878522440865e-022 -2.775933503887e-022 -2.212958604911e-022 -1.281577834925e-022 -5.599030909028e-023 -4.079555593970e-023 -2.396217340864e-021 -6.245628565666e-022 -6.858693388928e-024 -4.704208141315e-022 0.000000000000e+000 -1.003756289786e-022 -3.285168356281e-022 -3.326832494200e-022 0.000000000000e+000 8.083871712277e+004 -2.304718405166e-022 4.913330628408e+004 -6.838634871400e-023 -2.140345670344e-023 -2.799529103119e-024 -2.073534851454e-020 -4.064504820295e-020 -2.628724594204e-022 -1.724063848721e-023 -8.359916095831e-023 -2.743094799327e-023 -1.185840982769e-022 -7.814089066793e-023 -3.194826070470e-022 -4.448375639905e-022 -1.495953920958e-022 0.000000000000e+000 -8.189654653509e-023 -2.256879591526e-022 -3.234025813093e-023 -5.965047109505e-023 -3.243180190043e-024 -1.034851993215e-022 -3.582629911500e-022 -1.415075569722e-022 -7.957108582203e-023 -4.803732370444e-022 0.000000000000e+000 -7.149016419082e-021 -3.453850857148e-022 -2.179272433371e-022 -7.178196960251e-023 0.000000000000e+000 -3.789741509639e-023 -8.925331274713e-023 -2.092332121775e-022 -2.205351152842e-022 -1.143229901587e-022 -1.629570236501e-022 -3.208926468590e-022 -1.078203400457e-022 -7.479919223170e-024 -9.311651993268e-022 -3.227343956756e-022 -3.690827214561e-022 -3.834240046521e-022 -1.582998535083e-022 -3.485813950059e-023 -2.747093492838e-022 0.000000000000e+000 -4.190234193182e-023 -1.505189414080e-022 -5.402167670437e-021 -9.356259578617e-021 -3.640517062341e-022 -3.795282564161e-023 -2.056866884632e-021 -1.336059340601e-021 -5.786541969964e-021 -1.011774907900e-021 -1.754663995677e-021 -1.424644351421e-021 -3.470341901612e-023 -4.270782570664e-022 -4.242962002636e-022 -2.789423175751e-022 -3.361741677923e-022 -5.808731086902e-023 -1.305268392740e-022 -2.382826001576e-022 4.264379239818e+004 3.193884654546e+004 1.069650859608e+004 -2.945818230777e-022 0.000000000000e+000 -1.036792855457e-015 1.844451451813e+003 -1.255123733740e-016 -2.525780020093e-021 -1.476189788640e-022 -2.238056429873e-022 -4.221907875498e-023 -1.354867946353e-023 -5.083375366773e-019 -2.237577045490e-020 -1.105018023412e-022 -3.049073946165e-022 -1.468521832991e-019 -6.601311680070e-020 -1.988396411806e-022 -2.855758096686e-022 -5.399701933001e-021 0.000000000000e+000 -8.047201294023e-023 -1.013541177823e-017 -3.743747473069e-019 -1.407026336932e-017 0.000000000000e+000 -5.520467589781e-023 -2.208029724272e-020 -3.077424713717e-020 -1.246305425766e-019 -1.399384027997e-019 -6.576552473247e-023 -1.267353778285e-021 -7.362281866608e-022 -2.651450765592e-022 5.868984302558e+004 0.000000000000e+000 4.349699745350e+003 3.922345132484e+004 5.848040322843e+004 -5.467956870701e-021 -2.160658772882e-019 -1.887714753234e-019 -4.442296277729e-023 -5.772271466329e-022 0.000000000000e+000 -1.483603129674e-020 -2.067926509783e-020 -4.875474025591e-020 -2.642706825382e-020 -1.231557694699e-020 -6.063522556737e-020 -3.998430052951e-022 -7.458211024254e-023 -4.653277145317e-022 -1.601689210097e-020 -1.777409739785e-020 -2.877652496887e-020 -3.277318103573e-022 -1.428043671096e-021 -2.356090181013e-021 -5.755208211059e-022 0.000000000000e+000 0.000000000000e+000 0.000000000000e+000 -1.279523129245e-019 -4.787931163172e-022 -3.969344889949e-022 -4.279582217011e-019 0.000000000000e+000 -1.820304128378e-021 -2.323550056793e-021 -3.267082090158e-021 -1.224831542260e-021 -6.398292674198e-022 0.000000000000e+000 1.028824219315e+005 8.899698421159e+004 9.074713197896e+004 1.023341869646e+005 8.250775244057e+004 -5.924383303285e-023 -5.938684688720e-023 
        </DataArray>
        <DataArray type="Float64" Name="Gas_Pressure" format="ascii">