<?xml version="1.0"?>
<VTKFile type="UnstructuredGrid" version="0.1" byte_order="LittleEndian">
  <UnstructuredGrid>
    <Piece NumberOfPoints="206" NumberOfCells="326">
      <Points>
        <DataArray type="Float64" NumberOfComponents="3" format="ascii">
          1.897435897436e+002 0.000000000000e+000 0.000000000000e+000
          1.931791020913e+002 4.394475469951e+000 0.000000000000e+000
          1.948717948718e+002 0.000000000000e+000 0.000000000000e+000
          5.880459463038e+000 1.099154902703e+001 0.000000000000e+000
          0.000000000000e+000 6.666666666655e+000 0.000000000000e+000
          0.000000000000e+000 1.333333333332e+001 0.000000000000e+000
          2.022497621136e+001 4.353446977749e+000 0.000000000000e+000
          2.051282051291e+001 0.000000000000e+000 0.000000000000e+000
          1.538461538468e+001 0.000000000000e+000 0.000000000000e+000
          1.711973192023e+001 9.822643375701e+000 0.000000000000e+000
          2.235754985755e+001 9.965277777778e+000 0.000000000000e+000
          1.342973104686e+001 5.024912353671e+000 0.000000000000e+000
          2.051282051273e+001 2.000000000000e+001 0.000000000000e+000
          1.990430525733e+001 1.515950912857e+001 0.000000000000e+000
          1.538461538455e+001 2.000000000000e+001 0.000000000000e+000
          1.275415082211e+002 1.500000000000e+001 0.000000000000e+000
          1.305226984145e+002 1.000000000000e+001 0.000000000000e+000
          1.266144349478e+002 1.000000000000e+001 0.000000000000e+000
          1.320283396971e+002 1.500000000000e+001 0.000000000000e+000
          1.275415082214e+002 5.000000000000e+000 0.000000000000e+000
          1.320283396974e+002 5.000000000000e+000 0.000000000000e+000
          2.662324775127e+001 5.694754464286e+000 0.000000000000e+000
          2.617521367521e+001 1.000000000000e+001 0.000000000000e+000
          2.532894973587e+001 1.397776144540e+001 0.000000000000e+000
          1.184289081109e+002 1.400000000000e+001 0.000000000000e+000
          1.217390520306e+002 1.000000000000e+001 0.000000000000e+000
          1.150696490874e+002 1.000602607727e+001 0.000000000000e+000
          1.222794923522e+002 1.500000000000e+001 0.000000000000e+000
          1.184289081111e+002 6.000000000000e+000 0.000000000000e+000
          1.222794923525e+002 5.000000000000e+000 0.000000000000e+000
          1.647570346228e+002 1.499982920203e+001 0.000000000000e+000
          1.610766879766e+002 9.999898274740e+000 0.000000000000e+000
          1.584898332400e+002 1.571424274568e+001 0.000000000000e+000
          7.586604251621e+001 5.621173932933e+000 0.000000000000e+000
          8.021655268624e+001 1.019499276048e+001 0.000000000000e+000
          8.189146271784e+001 4.117034117006e+000 0.000000000000e+000
          7.588302713352e+001 1.447660101075e+001 0.000000000000e+000
          8.201035504047e+001 1.604351572524e+001 0.000000000000e+000
          1.647575611852e+002 4.999583052019e+000 0.000000000000e+000
          1.589293847822e+002 4.146609780286e+000 0.000000000000e+000
          1.641025641024e+002 2.000000000000e+001 0.000000000000e+000
          1.692307692306e+002 2.000000000000e+001 0.000000000000e+000
          1.660230030600e+002 1.000000000000e+001 0.000000000000e+000
          1.697917692894e+002 1.499909577546e+001 0.000000000000e+000
          1.641025641028e+002 0.000000000000e+000 0.000000000000e+000
          1.692307692309e+002 0.000000000000e+000 0.000000000000e+000
          1.697948641857e+002 4.997649016204e+000 0.000000000000e+000
          1.743589743588e+002 2.000000000000e+001 0.000000000000e+000
          1.710911944708e+002 1.000000000000e+001 0.000000000000e+000
          1.749412615107e+002 1.499457465278e+001 0.000000000000e+000
          1.743589743591e+002 0.000000000000e+000 0.000000000000e+000
          1.749598308881e+002 4.985894097222e+000 0.000000000000e+000
          1.794871794871e+002 2.000000000000e+001 0.000000000000e+000
          1.769615825547e+002 9.964192708333e+000 0.000000000000e+000
          1.806150388551e+002 1.469347696151e+001 0.000000000000e+000
          1.794871794873e+002 0.000000000000e+000 0.000000000000e+000
          1.803838168879e+002 4.953657234265e+000 0.000000000000e+000
          1.846153846153e+002 2.000000000000e+001 0.000000000000e+000
          1.846153846155e+002 0.000000000000e+000 0.000000000000e+000
          1.858160403609e+002 4.891281862002e+000 0.000000000000e+000
          1.487179487182e+002 0.000000000000e+000 0.000000000000e+000
          1.505413635482e+002 5.088785165962e+000 0.000000000000e+000
          1.538461538464e+002 0.000000000000e+000 0.000000000000e+000
          5.128205128183e+001 2.000000000000e+001 0.000000000000e+000
          4.937524205543e+001 1.478507223003e+001 0.000000000000e+000
          4.615384615364e+001 2.000000000000e+001 0.000000000000e+000
          4.335527308620e+001 1.560308717176e+001 0.000000000000e+000
          4.102564102546e+001 2.000000000000e+001 0.000000000000e+000
          4.429011235569e+001 1.011123788964e+001 0.000000000000e+000
          3.589743589728e+001 2.000000000000e+001 0.000000000000e+000
          3.424338337179e+001 1.480928422469e+001 0.000000000000e+000
          3.076923076909e+001 2.000000000000e+001 0.000000000000e+000
          3.005689385761e+001 1.060364436599e+001 0.000000000000e+000
          6.153846153820e+001 2.000000000000e+001 0.000000000000e+000
          5.861144803786e+001 1.567337793620e+001 0.000000000000e+000
          5.641025641001e+001 2.000000000000e+001 0.000000000000e+000
          6.364098538444e+001 1.500000000000e+001 0.000000000000e+000
          5.989457932650e+001 1.030421617259e+001 0.000000000000e+000
          6.666666666639e+001 2.000000000000e+001 0.000000000000e+000
          6.863961921157e+001 1.499549437831e+001 0.000000000000e+000
          6.567188823475e+001 9.930555555556e+000 0.000000000000e+000
          8.717948717914e+001 2.000000000000e+001 0.000000000000e+000
          8.205128205096e+001 2.000000000000e+001 0.000000000000e+000
          8.825660559227e+001 1.457690124438e+001 0.000000000000e+000
          9.230769230733e+001 2.000000000000e+001 0.000000000000e+000
          8.616129659787e+001 8.733480538898e+000 0.000000000000e+000
          9.150074733547e+001 1.030748155382e+001 0.000000000000e+000
          1.384615384618e+002 0.000000000000e+000 0.000000000000e+000
          1.415932379237e+002 4.335026874129e+000 0.000000000000e+000
          1.435897435900e+002 0.000000000000e+000 0.000000000000e+000
          1.370080938287e+002 5.069444256391e+000 0.000000000000e+000
          1.404454238813e+002 9.718036725159e+000 0.000000000000e+000
          1.333333333336e+002 0.000000000000e+000 0.000000000000e+000
          1.076923076927e+002 0.000000000000e+000 0.000000000000e+000
          1.108991862601e+002 4.857696974887e+000 0.000000000000e+000
          1.128205128209e+002 0.000000000000e+000 0.000000000000e+000
          1.230769230773e+002 0.000000000000e+000 0.000000000000e+000
          1.282051282055e+002 0.000000000000e+000 0.000000000000e+000
          1.421648412768e+002 1.518915604417e+001 0.000000000000e+000
          1.384615384612e+002 2.000000000000e+001 0.000000000000e+000
          1.435897435894e+002 2.000000000000e+001 0.000000000000e+000
          1.370080938284e+002 1.506944425639e+001 0.000000000000e+000
          1.333333333330e+002 2.000000000000e+001 0.000000000000e+000
          1.230769230766e+002 2.000000000000e+001 0.000000000000e+000
          1.282051282048e+002 2.000000000000e+001 0.000000000000e+000
          1.106262295343e+002 1.449114286029e+001 0.000000000000e+000
          1.076923076919e+002 2.000000000000e+001 0.000000000000e+000
          1.128205128202e+002 2.000000000000e+001 0.000000000000e+000
          1.060408540078e+002 1.575486111111e+001 0.000000000000e+000
          5.803874767782e+001 4.824157678094e+000 0.000000000000e+000
          6.153846153872e+001 0.000000000000e+000 0.000000000000e+000
          5.641025641050e+001 0.000000000000e+000 0.000000000000e+000
          6.364098538470e+001 5.000000000000e+000 0.000000000000e+000
          6.666666666694e+001 0.000000000000e+000 0.000000000000e+000
          6.863961921185e+001 4.974991732804e+000 0.000000000000e+000
          9.032615013277e+001 4.937074209742e+000 0.000000000000e+000
          9.230769230805e+001 0.000000000000e+000 0.000000000000e+000
          8.717948717983e+001 0.000000000000e+000 0.000000000000e+000
          1.524809577360e+002 1.505950683102e+001 0.000000000000e+000
          1.487179487177e+002 2.000000000000e+001 0.000000000000e+000
          1.538461538459e+002 2.000000000000e+001 0.000000000000e+000
          1.472187406962e+002 1.523528621385e+001 0.000000000000e+000
          4.767577943456e+001 4.990079365079e+000 0.000000000000e+000
          5.128205128227e+001 0.000000000000e+000 0.000000000000e+000
          4.615384615405e+001 0.000000000000e+000 0.000000000000e+000
          5.289188460113e+001 4.768994659147e+000 0.000000000000e+000
          4.250523169876e+001 4.799709939732e+000 0.000000000000e+000
          4.102564102582e+001 0.000000000000e+000 0.000000000000e+000
          3.076923076937e+001 0.000000000000e+000 0.000000000000e+000
          2.564102564114e+001 0.000000000000e+000 0.000000000000e+000
          3.231012230340e+001 5.174437830688e+000 0.000000000000e+000
          3.589743589759e+001 0.000000000000e+000 0.000000000000e+000
          3.747197445908e+001 4.807502868680e+000 0.000000000000e+000
          1.589743589741e+002 2.000000000000e+001 0.000000000000e+000
          1.551353134763e+002 9.374350718944e+000 0.000000000000e+000
          7.179487179516e+001 0.000000000000e+000 0.000000000000e+000
          7.179487179458e+001 2.000000000000e+001 0.000000000000e+000
          1.179487179484e+002 2.000000000000e+001 0.000000000000e+000
          1.179487179491e+002 0.000000000000e+000 0.000000000000e+000
[...]
      <PointData Scalars="MEAN_PRESSURE">
        <DataArray type="Float64" Name="MEAN_PRESSURE" format="ascii">
          1.009999202111e+006 1.006651350156e+006 1.005000979795e+006 1.152990974753e+006 1.153540972864e+006 1.153470378689e+006 1.147740704199e+006 1.147562233255e+006 1.150104752254e+006 1.149319647940e+006 1.146577050363e+006 1.150931904067e+006 1.147518554941e+006 1.147844176949e+006 1.150123911912e+006 1.069344367727e+006 1.066603733717e+006 1.070193657155e+006 1.065213321964e+006 1.069344321206e+006 1.065213220754e+006 1.144469924299e+006 1.144717836951e+006 1.145095940814e+006 1.077611905558e+006 1.074630509707e+006 1.080620533774e+006 1.074140758876e+006 1.077611868576e+006 1.074140731179e+006 1.034232440198e+006 1.037772021347e+006 1.040254132892e+006 1.113211320902e+006 1.109863314399e+006 1.108555407157e+006 1.113199013183e+006 1.108466461430e+006 1.034231744203e+006 1.039832313770e+006 1.034862272026e+006 1.029916476236e+006 1.033012320332e+006 1.029374324816e+006 1.034862024716e+006 1.029916337939e+006 1.029371230076e+006 1.024954245570e+006 1.028117872619e+006 1.024389805313e+006 1.024954151859e+006 1.024371703224e+006 1.019978736537e+006 1.022430552239e+006 1.018882994429e+006 1.019978695901e+006 1.019107503321e+006 1.014992812289e+006 1.014992879287e+006 1.013824396040e+006 1.049570500028e+006 1.047839570474e+006 1.044693700245e+006 1.130480922165e+006 1.131695746078e+006 1.133691221928e+006 1.135383261387e+006 1.136755431760e+006 1.134827448780e+006 1.139660508027e+006 1.140565045293e+006 1.142399520431e+006 1.142785017932e+006 1.123637501366e+006 1.125645503649e+006 1.127128239594e+006 1.122168825955e+006 1.124774652668e+006 1.120016406220e+006 1.118589391755e+006 1.120732161975e+006 1.104348297715e+006 1.108426807670e+006 1.103481739600e+006 1.100172075990e+006 1.105171180272e+006 1.100835668426e+006 1.059230547371e+006 1.056295528423e+006 1.054417678114e+006 1.060587973807e+006 1.057374112931e+006 1.064004887658e+006 1.087116868697e+006 1.084309415547e+006 1.082614011294e+006 1.073417636852e+006 1.068735360425e+006 1.055758833547e+006 1.059230807327e+006 1.054417866608e+006 1.060588206061e+006 1.064004988292e+006 1.073417666566e+006 1.068735420158e+006 1.084549422719e+006 1.087116751767e+006 1.082613629459e+006 1.088550301206e+006 1.126034865997e+006 1.123637591506e+006 1.127128362772e+006 1.122169657616e+006 1.120016685563e+006 1.118589545148e+006 1.101796599148e+006 1.100171260503e+006 1.104348789493e+006 1.045994459120e+006 1.049570533099e+006 1.044692546318e+006 1.050991083500e+006 1.132754414132e+006 1.130481790488e+006 1.133692659821e+006 1.129444315826e+006 1.135887794806e+006 1.136756301249e+006 1.142400642486e+006 1.144978555311e+006 1.141601163236e+006 1.139660426489e+006 1.138786162026e+006 1.039787742946e+006 1.043463308979e+006 1.116269721625e+006 1.116269663247e+006 1.078046975306e+006 1.078046977500e+006 1.151983695546e+006 1.152669102128e+006 1.016409460046e+006 1.011199170621e+006 1.006523138747e+006 1.080593213012e+006 1.080593326014e+006 1.012511091840e+006 1.098816619344e+006 1.098449417915e+006 1.095903908472e+006 1.095087470620e+006 1.091549654307e+006 1.095902089751e+006 1.094826869698e+006 1.091547861998e+006 1.108430512273e+006 1.112410498670e+006 1.112410416124e+006 1.039787716833e+006 1.009999232217e+006 1.153093196158e+006 1.005673707395e+006 1.000000000000e+006 1.091559361438e+006 1.093058201267e+006 1.131008533971e+006 1.096862653788e+006 1.062712985925e+006 1.089180110103e+006 1.048677306478e+006 1.140081522859e+006 1.093531770920e+006 1.098255389522e+006 1.088770802880e+006 1.005000851764e+006 1.000000000000e+006 1.116231396386e+006 1.000000000000e+006 1.116052216696e+006 1.116052132931e+006 1.150700680786e+006 1.105033296738e+006 1.085501335324e+006 1.151658469104e+006 1.152063533476e+006 1.052535501599e+006 1.137830331883e+006 1.128317323486e+006 1.138129510245e+006 1.052050260694e+006 1.128680428624e+006 1.146216500833e+006 1.144985028068e+006 1.053073777756e+006 1.127943838570e+006 1.137513368299e+006 1.106854917509e+006 1.152007190618e+006 1.153092360762e+006 1.153064777675e+006 1.113138444701e+006 1.043959942320e+006 1.143200879389e+006 1.153463475082e+006 1.153416152081e+006 1.000000000000e+006 
        </DataArray>
        <DataArray type="Float64" Name="TOTAL_MASS_DENSITY" format="ascii">
          1.189303466247e-004 7.851130812473e-005 5.912821441271e-005 2.334687966044e-002 2.471662030121e-002 2.470717915943e-002 1.876596055516e-002 1.864775204595e-002 2.067963190963e-002 2.008068872481e-002 1.777595931507e-002 2.132065333543e-002 1.857885721124e-002 1.891610891989e-002 2.067613623624e-002 1.622026689834e-003 1.487800531664e-003 1.665534395411e-003 1.423718615329e-003 1.622054686087e-003 1.423779344490e-003 1.633229033208e-002 1.652247826392e-002 1.673231639176e-002 2.097097907928e-003 1.911713493489e-003 2.295217523064e-003 1.883193601930e-003 2.097120033695e-003 1.883210331339e-003 4.839338174857e-004 5.559346186863e-004 6.100754940054e-004 6.068830125623e-003 5.495409991363e-003 5.285514169202e-003 6.066163974035e-003 5.268382869898e-003 4.840387752154e-004 6.009151151192e-004 4.964987254563e-004 4.045528126602e-004 4.607346117769e-004 3.951694571264e-004 4.966491128759e-004 4.046371422886e-004 3.951810516552e-004 3.226604705635e-004 3.738565210869e-004 3.139734507355e-004 3.227178322727e-004 3.137588922065e-004 2.489114265509e-004 2.843595500791e-004 2.335914599497e-004 2.489363683667e-004 2.368112112161e-004 1.815598997073e-004 1.815187590454e-004 1.664502554352e-004 8.508797525784e-004 8.014206841707e-004 7.170327309963e-004 1.025468834114e-002 1.065086097171e-002 1.135342600938e-002 1.198752477680e-002 1.253677476520e-002 1.176950587609e-002 1.381235385191e-002 1.424183741362e-002 1.518428626175e-002 1.538215149011e-002 8.301052282471e-003 8.826959641978e-003 9.238187319408e-003 7.938327685146e-003 8.590940468083e-003 7.438666386206e-003 7.126291850914e-003 7.598275779556e-003 4.667483578798e-003 5.267671531229e-003 4.547113481891e-003 4.123452834930e-003 4.779117779909e-003 4.205346888722e-003 1.174854690451e-003 1.067186513102e-003 1.002575533468e-003 1.227657854604e-003 1.104940576681e-003 1.370144875246e-003 2.795182444945e-003 2.568256499331e-003 2.440097135745e-003 1.841403153839e-003 1.591513103034e-003 1.048126654340e-003 1.174698607583e-003 1.002461238282e-003 1.227518699918e-003 1.370084225903e-003 1.841385022695e-003 1.591477087410e-003 2.586959650976e-003 2.795250001704e-003 2.440319058386e-003 2.919215712393e-003 8.931693437818e-003 8.300847503290e-003 9.237788243998e-003 7.937772435014e-003 7.438436800534e-003 7.126167757360e-003 4.327432345700e-003 4.123915977489e-003 4.667193801231e-003 7.511602587830e-004 8.508588022582e-004 7.177308418618e-004 8.931024621859e-004 1.101707079561e-002 1.025347068934e-002 1.135101703640e-002 9.925976903005e-003 1.218348811771e-002 1.253271675671e-002 1.516871826388e-002 1.664358992751e-002 1.474888830559e-002 1.380333246507e-002 1.340468571242e-002 6.008363630718e-004 6.860643329329e-004 6.648203144354e-003 6.648267191243e-003 2.122480551948e-003 2.122480108944e-003 2.222434396430e-002 2.290663143830e-002 2.001264790180e-004 1.336672895426e-004 7.706860424832e-005 2.296240427209e-003 2.296173430704e-003 1.496899152539e-004 3.961062276087e-003 3.919043930624e-003 3.632379357719e-003 3.547411898209e-003 3.191025728714e-003 3.633425625106e-003 3.517748296613e-003 3.192062440524e-003 5.265537243273e-003 5.922262595649e-003 5.922324004874e-003 6.008518927561e-004 1.189114818034e-004 2.352715624004e-002 6.700831853362e-005 1.000000000000e-006 3.194554675583e-003 3.339120991959e-003 1.042457458987e-002 3.738508572068e-003 1.314337339533e-003 2.972103909875e-003 8.250593671193e-004 1.400894044037e-002 3.387482380412e-003 3.896961395759e-003 2.937565824833e-003 5.920485511881e-005 1.000000000000e-006 6.636069446740e-003 1.000000000000e-006 6.605505229401e-003 6.605532224892e-003 2.113135042416e-002 4.763663867612e-003 2.663120830483e-003 2.191953649684e-002 2.230438553408e-002 9.407773855475e-004 1.298485482872e-002 9.581581991255e-003 1.312131742645e-002 9.262870388655e-004 9.694996369100e-003 1.749188954826e-002 1.666583886440e-002 9.585503846207e-004 9.474925652716e-003 1.285282993451e-002 5.028986498054e-003 2.222554897127e-002 2.351045247736e-002 2.352110723020e-002 6.059635892901e-003 6.997114319212e-004 1.561953521412e-002 2.470610646845e-002 2.470119239939e-002 1.000000000000e-006 
        </DataArray>
      </PointData>
      <CellData>
        <DataArray type="Float64" Name="Capillary_Pressure" format="ascii">
          -1.704507134206e-022 1.517825678556e+005 5.601178603389e+004 4.336254410689e+004 7.214256766050e+004 7.653350263454e+004 5.665796753717e+004 4.470868973855e+004 -2.125807196523e-022 -1.815588976393e-022 -1.789211370986e-022 -3.344559796140e-022 0.000000000000e+000 1.060546855601e+004 -9.411365101105e-023 1.348762020447e+004 -9.652453966479e-024 -4.802359393906e-022 -3.225564120767e-022 -1.932738953755e-022 -9.868139274881e-023 -1.103151413344e-022 -1.055949984696e-022 -2.533200970667e-022 -3.478326815584e-022 -4.405013158057e-022 -1.062909183373e-023 -1.352669490711e-022 -1.148221694361e-022 -1.469962284678e-022 -6.958064607561e-023 -2.945539710929e-022 0.000000000000e+000 -1.175331510486e-022 -5.924742411836e-022 -1.084127721159e-022 -2.710265919996e-022 -4.529704869496e-022 -3.464634680913e-022 -1.044822383562e-022 0.000000000000e+000 -1.585523752311e-022 -1.966515699080e-022 -1.628874384424e-022 -7.410296902384e-023 0.000000000000e+000 -2.064278496016e-022 -3.948887149873e-022 -6.854100905696e-023 -9.172459605038e-023 -3.243070909883e-023 -9.037961999508e-023 0.000000000000e+000 -2.107894828064e-022 -3.291327005318e-022 -1.299376912488e-022 -3.268193761893e-022 -6.212092303740e-022 -2.956610499666e-022 -3.168633933094e-022 -1.283426969256e-022 -1.320665909964e-022 -2.222731401913e-022 -2.170254108096e-022 -4.455991732898e-022 -3.013666644844e-022 -1.528028094438e-022 -4.134133074916e-022 -4.093373053252e-023 -1.312595825034e-022 -1.139435662758e-022 0.000000000000e+000 -1.614268954713e-022 0.000000000000e+000 0.000000000000e+000 -5.796699415823e-022 -1.009769597818e-022 -2.715526504397e-022 -1.142596311796e-022 0.000000000000e+000 -3.343108027964e-022 0.000000000000e+000 -4.422757659611e-022 -5.293767487758e-023 -3.396078757110e-022 -1.607294216746e-022 -1.354599008842e-022 -5.708195943344e-022 -7.002088763280e-023 -1.682340232160e-022 -3.417463381046e-022 0.000000000000e+000 -4.912411920125e-022 -3.205849777693e-022 -5.145411936761e-023 -9.663859890461e-024 -1.522842593826e-022 -2.799440747772e-022 -2.680094429003e-022 0.000000000000e+000 0.000000000000e+000 -6.130233126268e-023 -3.626105829931e-022 -4.693943451891e-022 0.000000000000e+000 -1.625589112603e-022 -8.193412560996e-016 -6.982380109860e-022 -6.045391593227e-023 -4.441054025481e-023 -2.120400775422e-022 -2.599770165024e-022 -1.488749241762e-022 -8.975873670191e-023 -3.226802316123e-022 -4.575450389261e-023 -2.306630984133e-022 0.000000000000e+000 -2.289503281106e-022 -2.396133702651e-016 -8.882658194547e-023 -1.884334051146e-022 -4.276383943271e-022 -1.825188009333e-022 -2.717443839429e-022 -7.609734326410e-023 -3.686759230044e-022 -8.704848608489e-023 -3.107258981779e-022 -1.700242029592e-022 -1.826053877580e-022 1.006318048155e+005 1.148166254949e+005 -2.596872563445e-022 -7.652186742814e-022 -1.101186000033e-022 -2.376700406091e-022 0.000000000000e+000 -2.832465986116e-022 -2.720001690779e-022 -7.973385014767e-023 -2.173556069766e-022 -7.620673228228e-023 -3.036244379939e-022 -1.087999141734e-022 -1.905003368867e-022 -2.466367041205e-022 -2.826861130831e-023 -3.247496435870e-022 -4.469260189212e-022 -2.031651484142e-022 -1.824092623449e-022 -7.987514110330e-023 -8.150018799797e-023 -5.126119225445e-022 -7.222147238004e-023 -1.731219109930e-022 -7.017031775364e-023 -2.438093822205e-022 -1.767701671635e-022 -7.056830890771e-023 -2.505356684908e-022 -3.032587863413e-022 -2.558234842514e-022 -5.524875534190e-022 0.000000000000e+000 -1.420128009197e-022 -1.208984131672e-022 1.975938266024e+004 6.150039593576e+003 1.416417538356e+005 -2.656827806980e-022 1.282184449132e+005 0.000000000000e+000 -1.132142296738e-022 0.000000000000e+000 -1.408879008287e-022 -4.510373709084e-022 -3.366939177458e-022 -1.046839188949e-022 -1.213751504956e-022 -1.000127009775e-023 -4.395142559857e-022 -3.813805924887e-022 -1.564446816390e-022 -5.814256804686e-023 -3.481626826085e-022 -3.340758894435e-022 -4.166186058028e-022 -1.589950001340e-023 -7.352781050603e-025 -4.402078562990e-022 -6.660058981429e-023 -1.513624096860e-022 -2.382503940849e-022 0.000000000000e+000 -7.925463462831e-023 -2.780272433364e-022 -4.150995794983e-024 -5.217177746097e-022 -5.933659138820e-022 -7.147738847921e-022 -3.902625827631e-022 -1.698309204484e-022 -6.632697882169e-022 -2.552536465483e-023 0.000000000000e+000 -4.099350494619e-022 -8.166484363173e-023 -2.808616726268e-022 -1.512764234452e-022 -1.820840841042e-022 0.000000000000e+000 -4.727768939241e-023 0.000000000000e+000 -1.315729432223e-022 -2.601253563340e-022 0.000000000000e+000 0.000000000000e+000 -6.772767097906e-022 -2.030444565958e-022 -5.448798791484e-023 -2.304389418863e-022 -5.283615054162e-022 -2.291126182488e-022 -1.128588128250e-022 -3.417268596300e-023 -2.620612350199e-022 -5.570434260766e-022 -2.461266968267e-022 -4.365893565376e-022 -3.764050696873e-023 -5.739070085519e-022 7.631115281852e+004 7.194735996013e+004 -4.875079351038e-022 -1.709966583187e-022 -1.404298342485e-022 -3.942754630348e-022 -2.201736109207e-022 -2.260904514970e-022 1.253161719778e+005 1.216920418855e+005 1.129175354791e+005 -3.762549211914e-023 -2.420404009445e-022 9.459646263316e+004 1.079522875860e+005 9.332596910298e+004 -6.198619786450e-022 -1.607342976371e-023 -7.849831925767e-023 -1.421459953786e-022 -2.517944548791e-022 -5.057918881869e-022 -1.815510655091e-023 -1.486717438032e-022 -3.903572314030e-022 -4.192487502134e-023 0.000000000000e+000 -4.367083509565e-022 -2.011549617552e-022 -1.846023434310e-022 -1.126357248927e-022 6.935935198757e+003 1.045364327728e+004 -1.863672285317e-022 2.817191670103e+004 -5.671140255744e-022 -1.936471807223e-022 -4.979174571783e-022 -3.399225516704e-022 -6.404456969208e-022 -5.031684506887e-022 -2.414783612606e-022 -1.990608451873e-022 0.000000000000e+000 -3.839795627510e-023 1.317482342934e+005 9.936503432600e+004 1.098836381352e+005 1.245269754625e+005 1.311933136240e+005 -1.885043177505e-022 -7.396826423849e-023 -5.884307450236e-022 -1.360272971768e-022 -2.927504678420e-022 -2.128066163260e-022 -3.318224440770e-022 -2.343825084778e-022 0.000000000000e+000 -3.203738280564e-022 -3.829997045266e-022 -1.041226123317e-022 -1.600487673624e-023 -3.902454715394e-022 -1.438466238642e-022 -1.460132787725e-022 -6.349241225751e-022 -8.452851854458e-022 0.000000000000e+000 -1.950929807014e-022 -1.098261242755e-022 -4.365745138202e-022 -1.921832228738e-022 -2.972486357351e-022 -8.374634351873e-024 -1.497810626528e-022 -1.119657864786e-022 -4.525822682535e-022 -2.433013854068e-022 -2.616864021649e-022 -5.200335353916e-022 -2.909783901390e-022 -6.391031320081e-022 -1.379898513507e-022 -2.332921274952e-022 -2.269561172115e-022 1.526431409982e+005 1.450361175504e+005 1.460200550883e+005 1.527595620562e+005 1.426711107486e+005 0.000000000000e+000 -2.167705080880e-022 
        </DataArray>
        <DataArray type="Float64" Name="Gas_Pressure" format="ascii">