<?xml version="1.0"?>
<VTKFile type="UnstructuredGrid" version="0.1" byte_order="LittleEndian">
  <UnstructuredGrid>
    <Piece NumberOfPoints="206" NumberOfCells="326">
      <Points>
        <DataArray type="Float64" NumberOfComponents="3" format="ascii">
          1.897435897436e+002 0.000000000000e+000 0.000000000000e+000
          1.931791020913e+002 4.394475469951e+000 0.000000000000e+000
          1.948717948718e+002 0.000000000000e+000 0.000000000000e+000
          5.880459463038e+000 1.099154902703e+001 0.000000000000e+000
          0.000000000000e+000 6.666666666655e+000 0.000000000000e+000
          0.000000000000e+000 1.333333333332e+001 0.000000000000e+000
          2.022497621136e+001 4.353446977749e+000 0.000000000000e+000
          2.051282051291e+001 0.000000000000e+000 0.000000000000e+000
          1.538461538468e+001 0.000000000000e+000 0.000000000000e+000
          1.711973192023e+001 9.822643375701e+000 0.000000000000e+000
          2.235754985755e+001 9.965277777778e+000 0.000000000000e+000
          1.342973104686e+001 5.024912353671e+000 0.000000000000e+000
          2.051282051273e+001 2.000000000000e+001 0.000000000000e+000
          1.990430525733e+001 1.515950912857e+001 0.000000000000e+000
          1.538461538455e+001 2.000000000000e+001 0.000000000000e+000
          1.275415082211e+002 1.500000000000e+001 0.000000000000e+000
          1.305226984145e+002 1.000000000000e+001 0.000000000000e+000
          1.266144349478e+002 1.000000000000e+001 0.000000000000e+000
          1.320283396971e+002 1.500000000000e+001 0.000000000000e+000
          1.275415082214e+002 5.000000000000e+000 0.000000000000e+000
          1.320283396974e+002 5.000000000000e+000 0.000000000000e+000
          2.662324775127e+001 5.694754464286e+000 0.000000000000e+000
          2.617521367521e+001 1.000000000000e+001 0.000000000000e+000
          2.532894973587e+001 1.397776144540e+001 0.000000000000e+000
          1.184289081109e+002 1.400000000000e+001 0.000000000000e+000
          1.217390520306e+002 1.000000000000e+001 0.000000000000e+000
          1.150696490874e+002 1.000602607727e+001 0.000000000000e+000
          1.222794923522e+002 1.500000000000e+001 0.000000000000e+000
          1.184289081111e+002 6.000000000000e+000 0.000000000000e+000
          1.222794923525e+002 5.000000000000e+000 0.000000000000e+000
          1.647570346228e+002 1.499982920203e+001 0.000000000000e+000
          1.610766879766e+002 9.999898274740e+000 0.000000000000e+000
          1.584898332400e+002 1.571424274568e+001 0.000000000000e+000
          7.586604251621e+001 5.621173932933e+000 0.000000000000e+000
          8.021655268624e+001 1.019499276048e+001 0.000000000000e+000
          8.189146271784e+001 4.117034117006e+000 0.000000000000e+000
          7.588302713352e+001 1.447660101075e+001 0.000000000000e+000
          8.201035504047e+001 1.604351572524e+001 0.000000000000e+000
          1.647575611852e+002 4.999583052019e+000 0.000000000000e+000
          1.589293847822e+002 4.146609780286e+000 0.000000000000e+000
          1.641025641024e+002 2.000000000000e+001 0.000000000000e+000
          1.692307692306e+002 2.000000000000e+001 0.000000000000e+000
          1.660230030600e+002 1.000000000000e+001 0.000000000000e+000
          1.697917692894e+002 1.499909577546e+001 0.000000000000e+000
          1.641025641028e+002 0.000000000000e+000 0.000000000000e+000
          1.692307692309e+002 0.000000000000e+000 0.000000000000e+000
          1.697948641857e+002 4.997649016204e+000 0.000000000000e+000
          1.743589743588e+002 2.000000000000e+001 0.000000000000e+000
          1.710911944708e+002 1.000000000000e+001 0.000000000000e+000
          1.749412615107e+002 1.499457465278e+001 0.000000000000e+000
          1.743589743591e+002 0.000000000000e+000 0.000000000000e+000
          1.749598308881e+002 4.985894097222e+000 0.000000000000e+000
          1.794871794871e+002 2.000000000000e+001 0.000000000000e+000
          1.769615825547e+002 9.964192708333e+000 0.000000000000e+000
          1.806150388551e+002 1.469347696151e+001 0.000000000000e+000
          1.794871794873e+002 0.000000000000e+000 0.000000000000e+000
          1.803838168879e+002 4.953657234265e+000 0.000000000000e+000
          1.846153846153e+002 2.000000000000e+001 0.000000000000e+000
          1.846153846155e+002 0.000000000000e+000 0.000000000000e+000
          1.858160403609e+002 4.891281862002e+000 0.000000000000e+000
          1.487179487182e+002 0.000000000000e+000 0.000000000000e+000
          1.505413635482e+002 5.088785165962e+000 0.000000000000e+000
          1.538461538464e+002 0.000000000000e+000 0.000000000000e+000
          5.128205128183e+001 2.000000000000e+001 0.000000000000e+000
          4.937524205543e+001 1.478507223003e+001 0.000000000000e+000
          4.615384615364e+001 2.000000000000e+001 0.000000000000e+000
          4.335527308620e+001 1.560308717176e+001 0.000000000000e+000
          4.102564102546e+001 2.000000000000e+001 0.000000000000e+000
          4.429011235569e+001 1.011123788964e+001 0.000000000000e+000
          3.589743589728e+001 2.000000000000e+001 0.000000000000e+000
          3.424338337179e+001 1.480928422469e+001 0.000000000000e+000
          3.076923076909e+001 2.000000000000e+001 0.000000000000e+000
          3.005689385761e+001 1.060364436599e+001 0.000000000000e+000
          6.153846153820e+001 2.000000000000e+001 0.000000000000e+000
          5.861144803786e+001 1.567337793620e+001 0.000000000000e+000
          5.641025641001e+001 2.000000000000e+001 0.000000000000e+000
          6.364098538444e+001 1.500000000000e+001 0.000000000000e+000
          5.989457932650e+001 1.030421617259e+001 0.000000000000e+000
          6.666666666639e+001 2.000000000000e+001 0.000000000000e+000
          6.863961921157e+001 1.499549437831e+001 0.000000000000e+000
          6.567188823475e+001 9.930555555556e+000 0.000000000000e+000
          8.717948717914e+001 2.000000000000e+001 0.000000000000e+000
          8.205128205096e+001 2.000000000000e+001 0.000000000000e+000
          8.825660559227e+001 1.457690124438e+001 0.000000000000e+000
          9.230769230733e+001 2.000000000000e+001 0.000000000000e+000
          8.616129659787e+001 8.733480538898e+000 0.000000000000e+000
          9.150074733547e+001 1.030748155382e+001 0.000000000000e+000
          1.384615384618e+002 0.000000000000e+000 0.000000000000e+000
          1.415932379237e+002 4.335026874129e+000 0.000000000000e+000
          1.435897435900e+002 0.000000000000e+000 0.000000000000e+000
          1.370080938287e+002 5.069444256391e+000 0.000000000000e+000
          1.404454238813e+002 9.718036725159e+000 0.000000000000e+000
          1.333333333336e+002 0.000000000000e+000 0.000000000000e+000
          1.076923076927e+002 0.000000000000e+000 0.000000000000e+000
          1.108991862601e+002 4.857696974887e+000 0.000000000000e+000
          1.128205128209e+002 0.000000000000e+000 0.000000000000e+000
          1.230769230773e+002 0.000000000000e+000 0.000000000000e+000
          1.282051282055e+002 0.000000000000e+000 0.000000000000e+000
          1.421648412768e+002 1.518915604417e+001 0.000000000000e+000
          1.384615384612e+002 2.000000000000e+001 0.000000000000e+000
          1.435897435894e+002 2.000000000000e+001 0.000000000000e+000
          1.370080938284e+002 1.506944425639e+001 0.000000000000e+000
          1.333333333330e+002 2.000000000000e+001 0.000000000000e+000
          1.230769230766e+002 2.000000000000e+001 0.000000000000e+000
          1.282051282048e+002 2.000000000000e+001 0.000000000000e+000
          1.106262295343e+002 1.449114286029e+001 0.000000000000e+000
          1.076923076919e+002 2.000000000000e+001 0.000000000000e+000
          1.128205128202e+002 2.000000000000e+001 0.000000000000e+000
          1.060408540078e+002 1.575486111111e+001 0.000000000000e+000
          5.803874767782e+001 4.824157678094e+000 0.000000000000e+000
          6.153846153872e+001 0.000000000000e+000 0.000000000000e+000
          5.641025641050e+001 0.000000000000e+000 0.000000000000e+000
          6.364098538470e+001 5.000000000000e+000 0.000000000000e+000
          6.666666666694e+001 0.000000000000e+000 0.000000000000e+000
          6.863961921185e+001 4.974991732804e+000 0.000000000000e+000
          9.032615013277e+001 4.937074209742e+000 0.000000000000e+000
          9.230769230805e+001 0.000000000000e+000 0.000000000000e+000
          8.717948717983e+001 0.000000000000e+000 0.000000000000e+000
          1.524809577360e+002 1.505950683102e+001 0.000000000000e+000
          1.487179487177e+002 2.000000000000e+001 0.000000000000e+000
          1.538461538459e+002 2.000000000000e+001 0.000000000000e+000
          1.472187406962e+002 1.523528621385e+001 0.000000000000e+000
          4.767577943456e+001 4.990079365079e+000 0.000000000000e+000
          5.128205128227e+001 0.000000000000e+000 0.000000000000e+000
          4.615384615405e+001 0.000000000000e+000 0.000000000000e+000
          5.289188460113e+001 4.768994659147e+000 0.000000000000e+000
          4.250523169876e+001 4.799709939732e+000 0.000000000000e+000
          4.102564102582e+001 0.000000000000e+000 0.000000000000e+000
          3.076923076937e+001 0.000000000000e+000 0.000000000000e+000
          2.564102564114e+001 0.000000000000e+000 0.000000000000e+000
          3.231012230340e+001 5.174437830688e+000 0.000000000000e+000
          3.589743589759e+001 0.000000000000e+000 0.000000000000e+000
          3.747197445908e+001 4.807502868680e+000 0.000000000000e+000
          1.589743589741e+002 2.000000000000e+001 0.000000000000e+000
          1.551353134763e+002 9.374350718944e+000 0.000000000000e+000
          7.179487179516e+001 0.000000000000e+000 0.000000000000e+000
          7.179487179458e+001 2.000000000000e+001 0.000000000000e+000
          1.179487179484e+002 2.000000000000e+001 0.000000000000e+000
          1.179487179491e+002 0.000000000000e+000 0.000000000000e+000
[...]
      <PointData Scalars="MEAN_PRESSURE">
        <DataArray type="Float64" Name="MEAN_PRESSURE" format="ascii">
          1.008173514652e+006 1.005435875272e+006 1.004086921669e+006 1.127227941914e+006 1.128081997558e+006 1.128068648257e+006 1.123531340835e+006 1.123420904430e+006 1.124955505157e+006 1.124458383933e+006 1.122823387528e+006 1.125491147178e+006 1.123426008029e+006 1.123626473375e+006 1.124957251603e+006 1.057409475344e+006 1.055088247895e+006 1.058129922817e+006 1.053912858255e+006 1.057409459594e+006 1.053912820702e+006 1.121333179733e+006 1.121479139794e+006 1.121796922305e+006 1.064447814859e+006 1.061903088511e+006 1.067020623850e+006 1.061485844035e+006 1.064447801259e+006 1.061485836122e+006 1.028066349854e+006 1.030990524038e+006 1.033044458596e+006 1.095243786254e+006 1.092332488163e+006 1.091194634990e+006 1.095233045432e+006 1.091117196047e+006 1.028065883059e+006 1.032695434957e+006 1.028586457045e+006 1.024508802843e+006 1.027059883913e+006 1.024062479585e+006 1.028586394179e+006 1.024508770833e+006 1.024059994124e+006 1.020427813972e+006 1.023028569622e+006 1.019964237890e+006 1.020427795645e+006 1.019949436645e+006 1.016344476501e+006 1.018355703897e+006 1.015446175875e+006 1.016344469782e+006 1.015630314898e+006 1.012259524657e+006 1.012259534205e+006 1.011302968544e+006 1.040786340912e+006 1.039344028115e+006 1.036727165901e+006 1.110062726527e+006 1.111079843405e+006 1.112734513863e+006 1.114125450520e+006 1.115242784584e+006 1.113671467802e+006 1.117574942828e+006 1.118291855248e+006 1.119725528066e+006 1.120011790343e+006 1.104254608141e+006 1.105971284367e+006 1.107233181300e+006 1.102993944151e+006 1.105228717015e+006 1.101139807498e+006 1.099907005121e+006 1.101757619186e+006 1.087533676947e+006 1.091082669522e+006 1.086779672227e+006 1.083902412017e+006 1.088249475268e+006 1.084479027908e+006 1.048872023427e+006 1.046408659852e+006 1.044835580760e+006 1.050013398045e+006 1.047312671791e+006 1.052892573646e+006 1.072602702803e+006 1.070186765075e+006 1.068730647037e+006 1.060870019636e+006 1.056893219510e+006 1.045958643780e+006 1.048872119132e+006 1.044835634149e+006 1.050013487938e+006 1.052892607116e+006 1.060870025171e+006 1.056893238705e+006 1.070393055122e+006 1.072602617178e+006 1.068730389970e+006 1.073838668349e+006 1.106303624363e+006 1.104254930379e+006 1.107233628338e+006 1.102994943114e+006 1.101140245550e+006 1.099907262848e+006 1.085314318579e+006 1.083901623030e+006 1.087533953259e+006 1.037808552477e+006 1.040786338226e+006 1.036726818113e+006 1.041971355831e+006 1.111959716693e+006 1.110064042044e+006 1.112736513211e+006 1.109192132647e+006 1.114537976572e+006 1.115244519240e+006 1.119730509104e+006 1.121683772060e+006 1.119103540572e+006 1.117579068245e+006 1.116880459930e+006 1.032659367752e+006 1.035705381349e+006 1.097898612883e+006 1.097898457042e+006 1.064818405880e+006 1.064818422192e+006 1.126320333130e+006 1.127003543940e+006 1.013419562238e+006 1.009155041021e+006 1.005331149110e+006 1.066998345711e+006 1.066998397459e+006 1.010228043630e+006 1.082725050969e+006 1.082406270993e+006 1.080197723902e+006 1.079490435776e+006 1.076428079007e+006 1.080196273580e+006 1.079264116090e+006 1.076426767026e+006 1.091085859153e+006 1.094548212549e+006 1.094548093152e+006 1.032659356856e+006 1.008173518900e+006 1.127357218959e+006 1.004636762129e+006 1.000000000000e+006 1.076437062616e+006 1.077733072551e+006 1.110505154087e+006 1.081029283695e+006 1.051802789383e+006 1.074381304169e+006 1.040041837527e+006 1.117911208794e+006 1.078143192849e+006 1.082237859252e+006 1.074028578037e+006 1.004086906962e+006 1.000000000000e+006 1.097865903085e+006 1.000000000000e+006 1.097709759636e+006 1.097709768175e+006 1.125347366180e+006 1.088129638941e+006 1.071211997254e+006 1.126098594815e+006 1.126390392267e+006 1.043261056875e+006 1.116112870558e+006 1.108241623569e+006 1.116351529172e+006 1.042856213297e+006 1.108547125533e+006 1.122561726815e+006 1.121681338117e+006 1.043711429358e+006 1.107924589566e+006 1.115856211928e+006 1.089714707498e+006 1.126261031973e+006 1.127299432741e+006 1.127746134077e+006 1.095180180883e+006 1.036118794429e+006 1.120339619164e+006 1.127904111962e+006 1.128224928942e+006 1.000000000000e+006 
        </DataArray>
        <DataArray type="Float64" Name="TOTAL_MASS_DENSITY" format="ascii">
          1.750749133188e-005 1.166313542581e-005 8.966204592072e-006 1.820681486194e-002 2.090980204304e-002 2.080925472066e-002 1.318059206368e-002 1.310832371129e-002 1.465989267135e-002 1.411726859670e-002 1.257395048784e-002 1.528997002460e-002 1.310176792882e-002 1.327591566621e-002 1.465274124661e-002 4.621300417998e-004 4.083444551117e-004 4.799119016752e-004 3.834585271328e-004 4.621438711853e-004 3.834901219399e-004 1.140477059761e-002 1.153259153926e-002 1.175188004732e-002 6.679455993581e-004 5.846776482308e-004 7.592480278280e-004 5.723091668098e-004 6.679570007026e-004 5.723167048424e-004 8.596429231797e-005 1.032298476169e-004 1.168723653276e-004 2.999739123160e-003 2.613041880404e-003 2.474547990431e-003 2.997840114031e-003 2.462657016402e-003 8.601189835811e-005 1.145747302945e-004 8.892864447734e-005 6.833338964110e-005 8.068396797522e-005 6.635854022686e-005 8.899384237441e-005 6.836858551664e-005 6.637374032275e-005 5.172990518856e-005 6.193780173331e-005 5.008460991019e-005 5.175240938939e-005 5.005567501437e-005 3.821328714447e-005 4.455284748375e-005 3.557428035937e-005 3.822256186124e-005 3.614461485937e-005 2.702716659865e-005 2.701252008131e-005 2.464371678082e-005 1.848752745929e-004 1.700451408791e-004 1.456994685351e-004 6.152673575454e-003 6.474337358854e-003 7.054632078256e-003 7.585772205537e-003 8.051417308399e-003 7.402211880142e-003 9.150492886233e-003 9.525642605323e-003 1.035472641564e-002 1.052981637779e-002 4.618024516869e-003 5.021639317022e-003 5.342095557355e-003 4.344173226699e-003 4.838884503469e-003 3.973520894332e-003 3.745825657351e-003 4.090544141497e-003 2.079323558103e-003 2.463406083846e-003 2.003942310057e-003 1.746374514821e-003 2.148669938133e-003 1.795483177019e-003 2.915938868554e-004 2.544019996938e-004 2.328595107427e-004 3.103920320718e-004 2.671006729392e-004 3.630558145271e-004 1.006392938454e-003 8.918398593357e-004 8.290369991211e-004 5.542061067123e-004 4.497991316601e-004 2.479364231115e-004 2.915129386263e-004 2.328076275584e-004 3.103178445800e-004 3.630260728333e-004 5.541993413283e-004 4.497818236471e-004 9.011443800847e-004 1.006448299003e-003 8.292077612012e-004 1.070842262598e-003 5.102683013463e-003 4.617846243368e-003 5.341851158221e-003 4.343595305925e-003 3.973272459406e-003 3.745681787980e-003 1.869506740607e-003 1.746846778492e-003 2.079126103944e-003 1.554110558934e-004 1.848712036596e-004 1.460261568019e-004 1.978304390052e-004 6.776492596267e-003 6.151938894440e-003 7.053539093660e-003 5.888010220767e-003 7.752985603731e-003 8.050597938047e-003 1.035329493596e-002 1.167084927641e-002 9.979921358093e-003 9.148729926141e-003 8.800873241177e-003 1.147104678019e-004 1.371176746609e-004 3.403552693701e-003 3.403636777783e-003 6.790088624496e-004 6.790011329857e-004 1.631372789148e-002 1.730626724240e-002 3.000617421377e-005 1.968782085095e-005 1.147512037690e-005 7.603546429259e-004 7.603151971922e-004 2.204028327055e-005 1.650132200912e-003 1.625704376676e-003 1.459773839647e-003 1.412142474656e-003 1.214866317623e-003 1.460689723990e-003 1.394984686086e-003 1.215716307317e-003 2.461435271867e-003 2.898680212348e-003 2.898748446867e-003 1.147190719236e-004 1.750087025214e-005 1.861546006513e-002 1.005836689153e-005 1.000000000000e-006 1.217358463126e-003 1.295993674952e-003 6.290501075622e-003 1.520790253945e-003 3.420446493948e-004 1.097952264392e-003 1.770808774225e-004 9.324403697000e-003 1.322879431348e-003 1.612886464784e-003 1.080223354131e-003 8.992562959456e-006 1.000000000000e-006 3.393982147957e-003 1.000000000000e-006 3.373533135575e-003 3.373537745336e-003 1.510155764663e-002 2.139843586884e-003 9.394090109000e-004 1.596403002639e-002 1.646728976292e-002 2.127789859263e-004 8.435280182282e-003 5.612611915228e-003 8.552784164814e-003 2.083277793579e-004 5.703636027650e-003 1.236431034533e-002 1.166933621286e-002 2.185689505323e-004 5.528943746460e-003 8.323700441502e-003 2.309013698769e-003 1.632213887368e-002 1.854702253060e-002 1.858027170275e-002 2.994293724803e-003 1.411009647755e-004 1.074477210221e-002 2.080721580245e-002 2.076446245046e-002 1.000000000000e-006 
        </DataArray>
      </PointData>
      <CellData>
        <DataArray type="Float64" Name="Capillary_Pressure" format="ascii">
          -8.349055726786e-023 7.819090366500e+004 0.000000000000e+000 -2.084968282590e-022 -2.725682061003e-016 0.000000000000e+000 -2.437024113945e-022 -5.244136367309e-017 -4.648522486438e-023 -4.482594253011e-022 -4.560361400711e-022 -1.195815058684e-022 -5.506497603507e-022 -1.211467608930e-022 -5.539902420211e-022 -7.706070095231e-023 0.000000000000e+000 -8.476019802459e-023 0.000000000000e+000 -1.596406700051e-022 -3.741532091845e-023 -2.477040088235e-019 -4.667866427604e-019 -1.133211431379e-022 -2.349203619761e-022 -1.686460796891e-023 -6.995418101890e-023 -1.974936757351e-022 -5.481785121673e-022 -2.274855936861e-022 -5.421358525674e-022 -1.208950288014e-022 -1.262869865006e-022 -3.329124270239e-022 -1.976144156614e-022 -3.560916703900e-023 -8.294345646407e-023 -6.328045149483e-022 -2.514769301033e-022 -9.773304076162e-023 -3.519338907232e-022 -9.546958430179e-023 -1.314851377469e-023 -3.109870203148e-022 -1.856271391162e-022 -1.017197596064e-022 -4.640158776593e-022 -4.372233805940e-022 -5.581912691026e-023 0.000000000000e+000 -4.130631180725e-023 -2.825480792089e-022 -5.337126466936e-022 -1.215214880299e-022 -2.451815113205e-022 -4.677319403217e-022 -8.712572432347e-022 -1.326583375999e-022 -4.045369908911e-022 -4.345736364226e-022 -1.957530109567e-022 -7.067033597935e-020 -1.314875042279e-019 -1.059271796654e-022 -1.312060318810e-020 -2.099356814796e-019 -4.468560436038e-019 -6.253624346775e-019 -5.327976845655e-021 -3.545231240527e-022 -1.277623079205e-022 -1.068534485698e-022 0.000000000000e+000 -1.870294971465e-022 -2.332081837775e-022 -3.142952256080e-022 -1.877620424252e-022 -8.579914813823e-023 -2.039435244135e-022 -2.597211445772e-022 -4.287600456625e-022 -2.453585003017e-022 -2.451020706968e-022 -2.822862103703e-022 -6.301387777633e-023 -1.740956436500e-022 -2.458001734147e-022 -3.486665141162e-022 -4.321886972350e-022 0.000000000000e+000 -4.485548977544e-020 -3.715661049111e-022 -3.944758147154e-019 -5.540014127228e-019 -5.377676966132e-019 -1.441183898269e-022 -9.912261639571e-023 -2.049085271565e-022 -3.328878454258e-022 -5.427290672521e-022 -1.963631044314e-022 -7.008811044397e-023 -1.769327079040e-017 -1.823501104062e-022 -2.153032830645e-022 -4.652429799152e-022 -1.152421043186e-023 -1.584406128011e-022 0.000000000000e+000 -2.548948688540e-022 0.000000000000e+000 -7.051003994041e-023 -1.827698462967e-022 -1.054304132235e-022 -1.272614734477e-022 -1.433907368262e-023 -7.798489032343e-023 -4.383521115916e-022 0.000000000000e+000 -1.279769547753e-022 -3.259580031714e-022 -4.178932158228e-021 -7.418625631931e-020 -4.128379063219e-023 -2.440479695357e-022 -5.206367984064e-022 -2.644956773553e-023 -1.318715283482e-022 -2.258131144078e-022 -3.793305698342e-023 -1.250061764473e-022 -1.169529327346e-023 -1.171017676647e-022 -1.213099134605e-022 -1.707744984424e-022 0.000000000000e+000 -1.524811181329e-022 -4.662292857080e-022 -1.584902880891e-023 -1.215229058779e-022 -1.170487267367e-022 -2.328215624769e-022 -2.366934227151e-022 -1.703108845582e-022 -4.556410145860e-024 0.000000000000e+000 -1.890516531530e-023 -1.886295898212e-022 -8.108628674984e-022 -4.513876900767e-022 -9.164504035576e-023 0.000000000000e+000 -4.169120987941e-022 -3.133195523049e-023 0.000000000000e+000 -5.385543478532e-019 -1.182561433386e-022 -4.163707359603e-022 0.000000000000e+000 0.000000000000e+000 -2.849240831148e-020 -6.484122003942e-020 -4.568939173550e-020 -1.762925050954e-019 -3.251693396964e-022 -2.608843600627e-022 -2.322823466609e-022 -3.037254479469e-022 -1.850164845088e-022 0.000000000000e+000 4.956275693282e+004 -3.130018605845e-023 1.134185431978e+004 -2.648578782626e-022 -2.929089401634e-022 -2.461780468120e-022 -2.968625998155e-022 -4.286328263426e-022 0.000000000000e+000 -8.309697102648e-023 -1.970018604609e-022 -1.770287487835e-022 -8.752904818983e-023 -1.205354268209e-022 -4.165610393114e-022 -3.514126616080e-022 -5.255359237432e-023 -1.897714966822e-022 -1.716180211066e-022 -1.604152206416e-023 0.000000000000e+000 0.000000000000e+000 -2.265830465930e-022 0.000000000000e+000 -2.466510688311e-022 -2.441627206962e-022 -2.597132181074e-022 0.000000000000e+000 -8.662668277222e-023 0.000000000000e+000 -4.098685388242e-022 -6.152974807622e-024 0.000000000000e+000 -4.433390059018e-022 -1.332115140412e-022 -9.291930780516e-022 0.000000000000e+000 -1.688484898619e-022 -3.881405549662e-022 -2.569832822118e-022 -1.251417672965e-022 -2.239067066593e-022 -7.605659669446e-022 -1.565494699055e-022 -6.591160669891e-023 -1.262792694502e-022 -1.296584689796e-022 -9.910929730495e-023 0.000000000000e+000 -7.879761128225e-023 -2.815530805239e-022 -2.502424744399e-022 -7.352449062146e-023 -3.532288538445e-020 -1.272861562886e-019 -4.388662331273e-023 -2.040423165647e-022 -1.131703573499e-019 -1.637147141181e-019 -1.635353665711e-019 0.000000000000e+000 -1.170691574676e-019 -6.444057850740e-020 -7.942270729648e-022 0.000000000000e+000 -3.080319549347e-019 -5.694555029209e-020 -4.024267963953e-019 -5.246079050525e-023 -1.901937569395e-022 -1.129828490016e-023 5.933959372620e+003 4.279080259816e+003 -8.228377455807e-017 0.000000000000e+000 -2.622256084997e-022 -2.819850132711e-017 -3.819143179834e-022 -3.478882151756e-022 -2.420374872126e-022 -3.605385346259e-022 -1.962405236543e-022 -5.419480448664e-022 -1.588965398580e-022 0.000000000000e+000 -8.796365980311e-022 0.000000000000e+000 0.000000000000e+000 -2.160107849032e-022 -1.041867311173e-022 -2.070761605519e-022 0.000000000000e+000 -1.213402700863e-022 -3.998533675031e-022 -2.691215194630e-022 -6.514761608263e-023 -1.624015076246e-022 -4.147842825478e-023 -6.927710045455e-023 -3.495305683200e-022 -4.381773734025e-023 -7.348326962542e-022 -5.286603103824e-022 -1.655204709573e-022 -4.448194141172e-019 -9.829115730103e-019 -5.522064895506e-019 -2.610443674554e-019 2.251418570981e+004 -8.525059300844e-022 0.000000000000e+000 7.586117893828e+003 1.992695442963e+004 -1.998494454856e-022 -3.251347168015e-022 -8.156128753811e-022 -1.019408289424e-022 -1.765634252491e-022 -2.834996493975e-022 -2.132781479819e-022 -4.672437824412e-022 -4.502654695713e-023 -7.037335904338e-023 -2.222768178249e-022 -3.193915636512e-022 -1.217531273360e-022 -4.624084523390e-023 -2.026555535275e-022 0.000000000000e+000 0.000000000000e+000 -6.445799359392e-022 -1.869048198952e-019 -7.572095057753e-020 -7.202300119623e-019 -6.728254949639e-020 0.000000000000e+000 -1.203910365141e-022 -1.583605508866e-022 -2.272385015109e-022 -1.971241614139e-022 -1.115879300264e-021 -1.485879711415e-022 -5.397383291179e-022 -4.021319617975e-019 0.000000000000e+000 -1.724586268079e-019 -9.056174961732e-020 -2.059732492101e-022 -5.166993019178e-022 8.012002374386e+004 5.981543739424e+004 6.290280864743e+004 8.102005233637e+004 5.317913192607e+004 -1.032403859646e-022 -2.157475597498e-022 
        </DataArray>
        <DataArray type="Float64" Name="Gas_Pressure" format="ascii">