<?xml version="1.0"?>
<VTKFile type="UnstructuredGrid" version="0.1" byte_order="LittleEndian">
  <UnstructuredGrid>
    <Piece NumberOfPoints="206" NumberOfCells="326">
      <Points>
        <DataArray type="Float64" NumberOfComponents="3" format="ascii">
          1.897435897436e+002 0.000000000000e+000 0.000000000000e+000
          1.931791020913e+002 4.394475469951e+000 0.000000000000e+000
          1.948717948718e+002 0.000000000000e+000 0.000000000000e+000
          5.880459463038e+000 1.099154902703e+001 0.000000000000e+000
          0.000000000000e+000 6.666666666655e+000 0.000000000000e+000
          0.000000000000e+000 1.333333333332e+001 0.000000000000e+000
          2.022497621136e+001 4.353446977749e+000 0.000000000000e+000
          2.051282051291e+001 0.000000000000e+000 0.000000000000e+000
          1.538461538468e+001 0.000000000000e+000 0.000000000000e+000
          1.711973192023e+001 9.822643375701e+000 0.000000000000e+000
          2.235754985755e+001 9.965277777778e+000 0.000000000000e+000
          1.342973104686e+001 5.024912353671e+000 0.000000000000e+000
          2.051282051273e+001 2.000000000000e+001 0.000000000000e+000
          1.990430525733e+001 1.515950912857e+001 0.000000000000e+000
          1.538461538455e+001 2.000000000000e+001 0.000000000000e+000
          1.275415082211e+002 1.500000000000e+001 0.000000000000e+000
          1.305226984145e+002 1.000000000000e+001 0.000000000000e+000
          1.266144349478e+002 1.000000000000e+001 0.000000000000e+000
          1.320283396971e+002 1.500000000000e+001 0.000000000000e+000
          1.275415082214e+002 5.000000000000e+000 0.000000000000e+000
          1.320283396974e+002 5.000000000000e+000 0.000000000000e+000
          2.662324775127e+001 5.694754464286e+000 0.000000000000e+000
          2.617521367521e+001 1.000000000000e+001 0.000000000000e+000
          2.532894973587e+001 1.397776144540e+001 0.000000000000e+000
          1.184289081109e+002 1.400000000000e+001 0.000000000000e+000
          1.217390520306e+002 1.000000000000e+001 0.000000000000e+000
          1.150696490874e+002 1.000602607727e+001 0.000000000000e+000
          1.222794923522e+002 1.500000000000e+001 0.000000000000e+000
          1.184289081111e+002 6.000000000000e+000 0.000000000000e+000
          1.222794923525e+002 5.000000000000e+000 0.000000000000e+000
          1.647570346228e+002 1.499982920203e+001 0.000000000000e+000
          1.610766879766e+002 9.999898274740e+000 0.000000000000e+000
          1.584898332400e+002 1.571424274568e+001 0.000000000000e+000
          7.586604251621e+001 5.621173932933e+000 0.000000000000e+000
          8.021655268624e+001 1.019499276048e+001 0.000000000000e+000
          8.189146271784e+001 4.117034117006e+000 0.000000000000e+000
          7.588302713352e+001 1.447660101075e+001 0.000000000000e+000
          8.201035504047e+001 1.604351572524e+001 0.000000000000e+000
          1.647575611852e+002 4.999583052019e+000 0.000000000000e+000
          1.589293847822e+002 4.146609780286e+000 0.000000000000e+000
          1.641025641024e+002 2.000000000000e+001 0.000000000000e+000
          1.692307692306e+002 2.000000000000e+001 0.000000000000e+000
          1.660230030600e+002 1.000000000000e+001 0.000000000000e+000
          1.697917692894e+002 1.499909577546e+001 0.000000000000e+000
          1.641025641028e+002 0.000000000000e+000 0.000000000000e+000
          1.692307692309e+002 0.000000000000e+000 0.000000000000e+000
          1.697948641857e+002 4.997649016204e+000 0.000000000000e+000
          1.743589743588e+002 2.000000000000e+001 0.000000000000e+000
          1.710911944708e+002 1.000000000000e+001 0.000000000000e+000
          1.749412615107e+002 1.499457465278e+001 0.000000000000e+000
          1.743589743591e+002 0.000000000000e+000 0.000000000000e+000
          1.749598308881e+002 4.985894097222e+000 0.000000000000e+000
          1.794871794871e+002 2.000000000000e+001 0.000000000000e+000
          1.769615825547e+002 9.964192708333e+000 0.000000000000e+000
          1.806150388551e+002 1.469347696151e+001 0.000000000000e+000
          1.794871794873e+002 0.000000000000e+000 0.000000000000e+000
          1.803838168879e+002 4.953657234265e+000 0.000000000000e+000
          1.846153846153e+002 2.000000000000e+001 0.000000000000e+000
          1.846153846155e+002 0.000000000000e+000 0.000000000000e+000
          1.858160403609e+002 4.891281862002e+000 0.000000000000e+000
          1.487179487182e+002 0.000000000000e+000 0.000000000000e+000
          1.505413635482e+002 5.088785165962e+000 0.000000000000e+000
          1.538461538464e+002 0.000000000000e+000 0.000000000000e+000
          5.128205128183e+001 2.000000000000e+001 0.000000000000e+000
          4.937524205543e+001 1.478507223003e+001 0.000000000000e+000
          4.615384615364e+001 2.000000000000e+001 0.000000000000e+000
          4.335527308620e+001 1.560308717176e+001 0.000000000000e+000
          4.102564102546e+001 2.000000000000e+001 0.000000000000e+000
          4.429011235569e+001 1.011123788964e+001 0.000000000000e+000
          3.589743589728e+001 2.000000000000e+001 0.000000000000e+000
          3.424338337179e+001 1.480928422469e+001 0.000000000000e+000
          3.076923076909e+001 2.000000000000e+001 0.000000000000e+000
          3.005689385761e+001 1.060364436599e+001 0.000000000000e+000
          6.153846153820e+001 2.000000000000e+001 0.000000000000e+000
          5.861144803786e+001 1.567337793620e+001 0.000000000000e+000
          5.641025641001e+001 2.000000000000e+001 0.000000000000e+000
          6.364098538444e+001 1.500000000000e+001 0.000000000000e+000
          5.989457932650e+001 1.030421617259e+001 0.000000000000e+000
          6.666666666639e+001 2.000000000000e+001 0.000000000000e+000
          6.863961921157e+001 1.499549437831e+001 0.000000000000e+000
          6.567188823475e+001 9.930555555556e+000 0.000000000000e+000
          8.717948717914e+001 2.000000000000e+001 0.000000000000e+000
          8.205128205096e+001 2.000000000000e+001 0.000000000000e+000
          8.825660559227e+001 1.457690124438e+001 0.000000000000e+000
          9.230769230733e+001 2.000000000000e+001 0.000000000000e+000
          8.616129659787e+001 8.733480538898e+000 0.000000000000e+000
          9.150074733547e+001 1.030748155382e+001 0.000000000000e+000
          1.384615384618e+002 0.000000000000e+000 0.000000000000e+000
          1.415932379237e+002 4.335026874129e+000 0.000000000000e+000
          1.435897435900e+002 0.000000000000e+000 0.000000000000e+000
          1.370080938287e+002 5.069444256391e+000 0.000000000000e+000
          1.404454238813e+002 9.718036725159e+000 0.000000000000e+000
          1.333333333336e+002 0.000000000000e+000 0.000000000000e+000
          1.076923076927e+002 0.000000000000e+000 0.000000000000e+000
          1.108991862601e+002 4.857696974887e+000 0.000000000000e+000
          1.128205128209e+002 0.000000000000e+000 0.000000000000e+000
          1.230769230773e+002 0.000000000000e+000 0.000000000000e+000
          1.282051282055e+002 0.000000000000e+000 0.000000000000e+000
          1.421648412768e+002 1.518915604417e+001 0.000000000000e+000
          1.384615384612e+002 2.000000000000e+001 0.000000000000e+000
          1.435897435894e+002 2.000000000000e+001 0.000000000000e+000
          1.370080938284e+002 1.506944425639e+001 0.000000000000e+000
          1.333333333330e+002 2.000000000000e+001 0.000000000000e+000
          1.230769230766e+002 2.000000000000e+001 0.000000000000e+000
          1.282051282048e+002 2.000000000000e+001 0.000000000000e+000
          1.106262295343e+002 1.449114286029e+001 0.000000000000e+000
          1.076923076919e+002 2.000000000000e+001 0.000000000000e+000
          1.128205128202e+002 2.000000000000e+001 0.000000000000e+000
          1.060408540078e+002 1.575486111111e+001 0.000000000000e+000
          5.803874767782e+001 4.824157678094e+000 0.000000000000e+000
          6.153846153872e+001 0.000000000000e+000 0.000000000000e+000
          5.641025641050e+001 0.000000000000e+000 0.000000000000e+000
          6.364098538470e+001 5.000000000000e+000 0.000000000000e+000
          6.666666666694e+001 0.000000000000e+000 0.000000000000e+000
          6.863961921185e+001 4.974991732804e+000 0.000000000000e+000
          9.032615013277e+001 4.937074209742e+000 0.000000000000e+000
          9.230769230805e+001 0.000000000000e+000 0.000000000000e+000
          8.717948717983e+001 0.000000000000e+000 0.000000000000e+000
          1.524809577360e+002 1.505950683102e+001 0.000000000000e+000
          1.487179487177e+002 2.000000000000e+001 0.000000000000e+000
          1.538461538459e+002 2.000000000000e+001 0.000000000000e+000
          1.472187406962e+002 1.523528621385e+001 0.000000000000e+000
          4.767577943456e+001 4.990079365079e+000 0.000000000000e+000
          5.128205128227e+001 0.000000000000e+000 0.000000000000e+000
          4.615384615405e+001 0.000000000000e+000 0.000000000000e+000
          5.289188460113e+001 4.768994659147e+000 0.000000000000e+000
          4.250523169876e+001 4.799709939732e+000 0.000000000000e+000
          4.102564102582e+001 0.000000000000e+000 0.000000000000e+000
          3.076923076937e+001 0.000000000000e+000 0.000000000000e+000
          2.564102564114e+001 0.000000000000e+000 0.000000000000e+000
          3.231012230340e+001 5.174437830688e+000 0.000000000000e+000
          3.589743589759e+001 0.000000000000e+000 0.000000000000e+000
          3.747197445908e+001 4.807502868680e+000 0.000000000000e+000
          1.589743589741e+002 2.000000000000e+001 0.000000000000e+000
          1.551353134763e+002 9.374350718944e+000 0.000000000000e+000
          7.179487179516e+001 0.000000000000e+000 0.000000000000e+000
          7.179487179458e+001 2.000000000000e+001 0.000000000000e+000
          1.179487179484e+002 2.000000000000e+001 0.000000000000e+000
          1.179487179491e+002 0.000000000000e+000 0.000000000000e+000
[...]
      <PointData Scalars="MEAN_PRESSURE">
        <DataArray type="Float64" Name="MEAN_PRESSURE" format="ascii">
          1.009795728623e+006 1.006515868431e+006 1.004899092390e+006 1.150272851718e+006 1.150885734037e+006 1.150854345251e+006 1.144804599536e+006 1.144431885943e+006 1.147270425409e+006 1.146331661001e+006 1.143860833729e+006 1.148043412903e+006 1.144434415205e+006 1.145057860829e+006 1.147372694772e+006 1.068017041495e+006 1.065323318830e+006 1.068851901956e+006 1.063956921225e+006 1.068016998164e+006 1.063956826666e+006 1.141915117211e+006 1.142098447838e+006 1.142499110578e+006 1.076146469126e+006 1.073214259250e+006 1.079105914479e+006 1.072732660138e+006 1.076146434418e+006 1.072732634422e+006 1.033546292996e+006 1.037017593939e+006 1.039452211948e+006 1.111200577091e+006 1.107901620396e+006 1.106612911010e+006 1.111188417316e+006 1.106525239077e+006 1.033545622755e+006 1.039038467046e+006 1.034163950493e+006 1.029314523835e+006 1.032349885561e+006 1.028783013747e+006 1.034163724078e+006 1.029314397774e+006 1.028779987050e+006 1.024450198318e+006 1.027551279654e+006 1.023896969286e+006 1.024450113507e+006 1.023879234825e+006 1.019573898922e+006 1.021976709120e+006 1.018500123502e+006 1.019573862378e+006 1.018720141962e+006 1.014688250512e+006 1.014688310498e+006 1.013543423556e+006 1.048593950001e+006 1.046895039432e+006 1.043807842829e+006 1.128202429870e+006 1.129395463619e+006 1.131351965274e+006 1.133008868180e+006 1.134350807184e+006 1.132465339047e+006 1.137189338875e+006 1.138072966918e+006 1.139866052624e+006 1.140222950928e+006 1.121471098354e+006 1.123447728494e+006 1.124906634728e+006 1.120024974274e+006 1.122590808837e+006 1.117905015761e+006 1.116499315436e+006 1.118610143474e+006 1.102467742645e+006 1.106486191969e+006 1.101613986609e+006 1.098353605214e+006 1.103278443108e+006 1.099007279399e+006 1.058079112985e+006 1.055196541803e+006 1.053352553222e+006 1.059412493422e+006 1.056255726691e+006 1.062769481049e+006 1.085498573056e+006 1.082735582969e+006 1.081067302202e+006 1.072021597010e+006 1.067418414973e+006 1.054669481059e+006 1.058079355569e+006 1.053352726815e+006 1.059412710797e+006 1.062769574558e+006 1.072021624286e+006 1.067418470479e+006 1.082971765673e+006 1.085498459289e+006 1.081066933259e+006 1.086909538537e+006 1.123831251196e+006 1.121471508686e+006 1.124907266352e+006 1.120025983538e+006 1.117905467303e+006 1.116499563509e+006 1.099953890466e+006 1.098352801173e+006 1.102468219170e+006 1.045084271670e+006 1.048593978593e+006 1.043806777402e+006 1.049988394245e+006 1.130434293880e+006 1.128203965332e+006 1.131354035302e+006 1.127184511748e+006 1.133502988695e+006 1.134352276914e+006 1.139881785823e+006 1.142388004722e+006 1.139085191387e+006 1.137194476106e+006 1.136337359885e+006 1.038994842074e+006 1.042600585767e+006 1.114214067604e+006 1.114213925465e+006 1.076574290513e+006 1.076574293992e+006 1.149157868905e+006 1.149956612164e+006 1.016076329519e+006 1.010971361853e+006 1.006390275636e+006 1.079079142144e+006 1.079079249187e+006 1.012256665281e+006 1.097018471746e+006 1.096656801432e+006 1.094149752726e+006 1.093345773600e+006 1.089862201852e+006 1.094147979494e+006 1.093089092357e+006 1.089860462931e+006 1.106489840444e+006 1.110411515036e+006 1.110411395381e+006 1.038994817448e+006 1.009795755565e+006 1.150420118814e+006 1.005558123287e+006 1.000000000000e+006 1.089871819611e+006 1.091347534024e+006 1.128720974982e+006 1.095093980964e+006 1.061500119687e+006 1.087529435406e+006 1.047717252730e+006 1.137603178999e+006 1.091813861022e+006 1.096465698454e+006 1.087126563383e+006 1.004898978429e+006 1.000000000000e+006 1.114176291640e+006 1.000000000000e+006 1.113999681217e+006 1.113999658428e+006 1.147720421897e+006 1.103142628877e+006 1.083908580831e+006 1.148840596593e+006 1.149419770404e+006 1.051504541572e+006 1.135402069507e+006 1.126076396116e+006 1.135693980563e+006 1.051028221542e+006 1.126433096031e+006 1.143501252146e+006 1.142381784004e+006 1.052033055647e+006 1.125709130294e+006 1.135092428663e+006 1.104937403350e+006 1.149196928482e+006 1.150344165875e+006 1.150452998348e+006 1.111128752585e+006 1.043087989704e+006 1.140641600476e+006 1.150834696194e+006 1.150724466954e+006 1.000000000000e+006 
        </DataArray>
        <DataArray type="Float64" Name="TOTAL_MASS_DENSITY" format="ascii">
          9.725098644512e-005 6.417209035220e-005 4.835990414419e-005 2.279484786515e-002 2.424119419439e-002 2.422980725147e-002 1.763772412046e-002 1.749352526046e-002 1.986961033175e-002 1.909240978843e-002 1.690604863662e-002 2.059280845163e-002 1.749162898220e-002 1.777939343344e-002 1.987507902769e-002 1.414421955911e-003 1.292513818273e-003 1.454023471655e-003 1.234502779879e-003 1.414448341858e-003 1.234560209537e-003 1.565299415710e-002 1.578277461210e-002 1.602969164333e-002 1.849436286722e-003 1.679035941171e-003 2.032034295910e-003 1.652912131591e-003 1.849457266454e-003 1.652927830608e-003 4.030509328603e-004 4.649346654213e-004 5.117151799982e-004 5.598759255591e-003 5.049639196336e-003 4.849066271837e-003 5.596193258620e-003 4.832610830057e-003 4.031493664321e-004 5.038033514417e-004 4.138328352095e-004 3.353725048675e-004 3.832194087137e-004 3.274150253449e-004 4.139727991166e-004 3.354507415200e-004 3.274298423473e-004 2.662021218120e-004 3.093702123571e-004 2.589126606221e-004 2.662550717575e-004 2.587376830097e-004 2.045290186858e-004 2.341016394154e-004 1.917921563578e-004 2.045519446253e-004 1.944759560908e-004 1.487279638094e-004 1.486902623281e-004 1.362675731560e-004 7.223300840500e-004 6.787867997628e-004 6.048009254989e-004 9.651297648810e-003 1.003814961578e-002 1.072548590528e-002 1.134725986147e-002 1.188628945696e-002 1.113394982238e-002 1.314006842170e-002 1.356295189998e-002 1.448899272758e-002 1.468248469025e-002 7.751498262557e-003 8.261617219831e-003 8.661135752857e-003 7.400265545143e-003 8.032487962464e-003 6.917290607525e-003 6.615871732965e-003 7.071389763490e-003 4.260288105891e-003 4.832107004714e-003 4.145847201634e-003 3.744241918424e-003 4.366336005928e-003 3.821766670122e-003 1.010444331832e-003 9.141950043876e-004 8.566548015135e-004 1.057803057514e-003 9.478503442315e-004 1.186105111505e-003 2.496169287867e-003 2.285049302003e-003 2.166176891801e-003 1.614641323975e-003 1.386680511112e-003 8.971893238586e-004 1.010296830369e-003 8.565479823381e-004 1.057671224544e-003 1.186048035987e-003 1.614624500106e-003 1.386646639783e-003 2.302422795920e-003 2.496235864014e-003 2.166394197180e-003 2.611905801264e-003 8.363362607477e-003 7.751323934919e-003 8.660896946498e-003 7.399714115418e-003 6.917056766261e-003 6.615742227272e-003 3.937464918210e-003 3.744706561607e-003 4.260005746933e-003 6.346773573249e-004 7.223114202236e-004 6.054548627066e-004 7.595958701659e-004 1.039711537329e-002 9.650617443856e-003 1.072451812054e-002 9.331022215073e-003 1.154152925032e-002 1.188565703221e-002 1.448834643849e-002 1.594237267143e-002 1.407242811740e-002 1.313858528532e-002 1.274414622993e-002 5.037925988508e-004 5.777672937272e-004 6.155364527525e-003 6.155435844640e-003 1.872694523432e-003 1.872693181075e-003 2.159019879372e-002 2.232635695739e-002 1.640617350684e-004 1.093352654345e-004 6.300124550973e-005 2.033105349094e-003 2.033041188715e-003 1.224653948042e-004 3.590692080927e-003 3.551035109149e-003 3.280619019418e-003 3.200722332611e-003 2.866038340313e-003 3.281654832474e-003 3.172736964019e-003 2.867058979854e-003 4.829983384821e-003 5.458099642687e-003 5.458165191748e-003 5.038073858434e-004 9.723374118486e-005 2.298738614445e-002 5.478624720525e-005 1.000000000000e-006 2.869446768165e-003 3.004968642467e-003 9.817429887655e-003 3.380664973011e-003 1.135755070450e-003 2.661189545694e-003 6.995813181312e-004 1.333605409485e-002 3.050406934321e-003 3.530197256156e-003 2.628999785879e-003 4.843008466303e-005 1.000000000000e-006 6.143561733837e-003 1.000000000000e-006 6.114311365072e-003 6.114332724712e-003 2.037708037241e-002 4.351769932246e-003 2.373245709763e-003 2.124887640715e-002 2.167418193845e-002 8.017732485723e-004 1.232747047760e-002 8.995221465464e-003 1.246091382720e-002 7.889813790896e-004 9.105732045738e-003 1.668412069159e-002 1.593399812336e-002 8.175619009680e-004 8.891585387550e-003 1.219900336616e-002 4.604460913484e-003 2.159516334855e-002 2.296913111534e-002 2.298055861342e-002 5.590059471387e-003 5.897491522383e-004 1.492115528676e-002 2.422885092081e-002 2.422217433790e-002 1.000000000000e-006 
        </DataArray>
      </PointData>
      <CellData>
        <DataArray type="Float64" Name="Capillary_Pressure" format="ascii">
          -4.614082216818e-022 1.441090627291e+005 2.843372751434e+004 1.483533478026e+004 4.992708973500e+004 5.636829962916e+004 2.994011551565e+004 1.620209311046e+004 -6.252872032219e-023 0.000000000000e+000 -3.125142236604e-022 -8.812199524769e-023 -2.600980672930e-022 -1.663999659919e-022 -2.232293567663e-022 -5.783963841167e-017 -1.027582158579e-022 -1.106626830210e-022 0.000000000000e+000 -8.230083678096e-023 -1.324677095051e-022 -1.254276915382e-022 -1.350385739346e-022 -1.074095985356e-022 -3.014510588897e-022 -1.918132437296e-022 -2.038569688866e-022 -2.979028193187e-022 -4.413857976901e-023 -2.953387459615e-022 0.000000000000e+000 -2.520408455294e-022 -2.740141626555e-022 -1.910478093225e-022 -1.236602568090e-022 0.000000000000e+000 -5.279089850269e-022 -1.258029499415e-022 -1.306718269730e-022 -6.867449572766e-022 -2.450828910712e-022 -8.954120918471e-022 -1.063967209285e-022 -7.142648876365e-023 -2.367989266065e-023 0.000000000000e+000 -1.969744074947e-022 -2.095815558244e-022 -4.117645329012e-022 -6.107586737356e-023 -4.533471237169e-023 -1.668202300528e-023 -1.210454764579e-020 -2.841038867463e-020 0.000000000000e+000 -2.119535269140e-020 -1.933264602611e-019 -2.420964451196e-019 -1.995469907586e-022 -5.187659335329e-022 -2.294477880952e-022 -1.889221467804e-022 -1.117960373881e-022 -8.314513529269e-024 -2.692207891125e-022 -1.317014199457e-022 -1.878705172179e-022 -1.816370609458e-023 -1.633465530023e-022 -2.821033905870e-022 -3.727852586694e-022 -1.184314228936e-022 -1.634110731826e-022 -5.058995387216e-023 -1.502128627831e-023 -1.199510831531e-022 -1.703176779333e-022 0.000000000000e+000 -1.498452053304e-022 -2.991726609469e-022 -4.606396058872e-022 -4.758244475613e-022 -2.978722109968e-024 -3.275110992526e-022 -1.587114130533e-022 -6.136476594099e-022 -1.123596752216e-022 -1.166818846188e-022 -1.501877083904e-022 -1.304635164620e-022 -1.049961570231e-022 -3.778104249807e-022 -7.189194198460e-023 0.000000000000e+000 -2.147229894478e-022 -3.942491373867e-022 -2.174058282159e-022 -3.072342877714e-022 -1.105564912290e-022 -3.886967941993e-022 -4.493113162293e-022 -2.242333491786e-020 -2.500788971206e-022 -3.095097051123e-022 -3.899911347414e-023 -2.370792045254e-022 -1.959969520645e-022 -4.489522867946e-023 -6.052097785678e-022 -2.185238230360e-022 -1.544720811772e-022 -1.606375019478e-022 -1.402973198286e-022 -2.420788351476e-022 -6.864428392086e-022 -1.429649783749e-022 -5.018584146615e-022 -1.551132754319e-022 -2.812573621510e-022 0.000000000000e+000 -7.399079655707e-023 -1.038958166255e-022 -4.251986061210e-022 0.000000000000e+000 0.000000000000e+000 -1.728800122308e-022 -2.396436927443e-022 -2.214643545145e-022 -1.824285735362e-022 -1.291075711487e-022 -1.530297585320e-022 8.663396471541e+004 1.031747635271e+005 -2.244435631556e-022 -2.662323647872e-023 -2.073056241452e-022 -5.545139173476e-023 -6.066112927991e-023 -2.892428696967e-022 -9.960190778746e-023 -2.189835278913e-022 -2.680073307454e-022 -2.447618499352e-022 -6.693984307354e-023 -1.203908677386e-022 -3.705359396031e-022 -1.075102020952e-022 -3.658442192501e-022 -3.624304182785e-022 -2.418255174475e-022 -2.308683818815e-022 -4.534092676657e-022 0.000000000000e+000 -5.112701445683e-022 -3.012411455667e-022 -5.166063922789e-022 -2.561016638742e-022 -1.395562298017e-022 0.000000000000e+000 -6.687461729000e-023 0.000000000000e+000 -1.504494821072e-022 -2.440213276924e-022 -1.360697021612e-022 -5.345537024866e-022 -2.596407902605e-023 -2.183324895569e-022 -4.071614724655e-022 -3.334039330354e-022 -5.251855344175e-023 1.330904394505e+005 -1.176255857433e-022 1.183428668311e+005 -8.625992374382e-023 -8.468712318703e-023 -1.827565393418e-022 -3.376453206292e-020 -1.150339958091e-020 -2.910710690330e-022 -2.320815584693e-022 -3.510420629316e-022 -3.889606659958e-022 -7.596849235460e-022 -5.319749542793e-022 -3.499383224438e-022 -1.248799996279e-022 -7.006537592302e-021 -2.781617274359e-020 -7.827225399698e-022 -4.400413803703e-022 -2.389931488761e-023 -2.023294348458e-022 -3.568098185909e-022 -1.320488005306e-022 -9.923471129657e-023 -5.097687444738e-022 -1.141271150844e-023 -2.382077477465e-022 -5.668687651368e-022 0.000000000000e+000 -4.627169238325e-021 -4.060252540142e-022 -6.033476440633e-022 -4.305322243211e-022 -6.542911763912e-023 -2.310112222148e-022 -1.978072205380e-022 -3.323815980289e-022 -7.304647215966e-022 -3.825132920974e-022 -5.867932569291e-023 -2.323841315184e-023 -3.615809126641e-022 -1.864790743961e-023 -2.383511572694e-023 -1.333878962693e-022 -4.268178622764e-023 0.000000000000e+000 -1.154446553245e-022 -1.150896427881e-022 -4.349601604312e-023 -2.988945900654e-022 0.000000000000e+000 -5.975859855425e-022 0.000000000000e+000 -1.683034948275e-022 -4.607408450044e-023 -2.644724838530e-022 -2.819465444723e-022 -3.686562842995e-022 -3.515494423835e-022 -3.783034579972e-022 -2.954898603999e-022 5.594505094569e+004 4.946815862128e+004 -1.481311133071e-022 -4.665908162512e-022 -4.938117155617e-022 0.000000000000e+000 -1.847284985955e-022 -8.676790211593e-023 1.150211668249e+005 1.109223860616e+005 1.009387355573e+005 -1.776497627817e-022 -4.995300252274e-021 7.857976055729e+004 9.520883395679e+004 7.702868718732e+004 -4.026363308834e-022 0.000000000000e+000 0.000000000000e+000 -1.939707295068e-022 -5.006048644793e-023 -1.508375544574e-020 -9.553277973233e-021 -6.960569570419e-022 -5.575223989675e-022 -3.849678397250e-020 -1.495682337053e-020 -2.237950424901e-022 -6.129347554247e-023 -4.261239469333e-022 -2.707809907519e-022 -6.642163232284e-019 -8.484679269183e-020 -1.677319331709e-018 5.911840791638e+002 0.000000000000e+000 0.000000000000e+000 -1.758083463551e-021 -3.282956089365e-022 0.000000000000e+000 0.000000000000e+000 0.000000000000e+000 -2.481938980650e-022 -2.556376750046e-022 -3.585000395473e-023 1.222538398276e+005 8.518547264310e+004 9.751354256088e+004 1.142046431853e+005 1.216053370358e+005 -9.840745915699e-022 -2.059799288618e-021 -2.587975636369e-020 -4.500358930449e-022 -8.101995885575e-024 -2.273571545780e-022 -5.011140811046e-020 -7.505332059849e-021 -1.146244143637e-020 -7.244344767054e-021 -2.563777357556e-021 -1.015198215493e-021 -3.311752680588e-022 -2.796561370869e-023 -1.149820571885e-022 -3.303138896102e-023 -1.527623515405e-022 -2.156847274559e-022 -2.769986303317e-022 -2.445507045123e-022 -4.620764753586e-022 -1.618531200188e-022 -6.186489538391e-022 0.000000000000e+000 -1.369683203228e-022 -3.401448584764e-019 -6.398220688185e-019 0.000000000000e+000 -1.101346025156e-018 -4.585541661322e-019 -1.655618237635e-022 -1.528103854163e-022 0.000000000000e+000 -3.532791125857e-022 0.000000000000e+000 -1.448838280548e-022 1.450450274562e+005 1.368084721160e+005 1.378794493399e+005 1.451772896539e+005 1.342191865626e+005 -1.244210748922e-022 -8.341096996290e-023 
        </DataArray>
        <DataArray type="Float64" Name="Gas_Pressure" format="ascii">